/*--------------------------------*- C++ -*----------------------------------*\
| =========                 |                                                 |
| \\      /  F ield         | OpenFOAM: The Open Source CFD Toolbox           |
|  \\    /   O peration     | Version:  2206                                  |
|   \\  /    A nd           | Website:  www.openfoam.com                      |
|    \\/     M anipulation  |                                                 |
\*---------------------------------------------------------------------------*/
FoamFile
{
    version     2.0;
    format      ascii;
    arch        "LSB;label=32;scalar=64";
    class       volScalarField;
    location    "0.05";
    object      alpha.water;
}
// * * * * * * * * * * * * * * * * * * * * * * * * * * * * * * * * * * * * * //

dimensions      [0 0 0 0 0 0 0];

internalField   nonuniform List<scalar> 
2268
(
1
1
1
1
1
1
1
1
1
1
1
1
1
1
0.4410214148580471
-2.061697297673552e-18
-3.144571487641807e-19
-6.469187676684117e-41
-4.814133419635395e-42
-8.412235025370478e-44
-1.496561050823509e-118
0
0
1
1
1
1
1
1
1
1
1
1
1
1
1
0.7798494629237315
0.07451656585011351
2.907040813332824e-19
-5.004262883809189e-20
-1.338318190671451e-21
-1.149965430513972e-22
-3.673476637189629e-24
-3.375077264706436e-26
1.757408496295617e-118
-4.567677350001523e-126
1
1
1
1
1
1
1
1
1
1
1
1
1
0.4964198232581901
6.198883489192609e-18
-4.756120623687506e-20
-2.83395331619152e-21
-3.96858967899877e-22
-1.879989255554362e-23
-2.527273858579218e-25
-1.07997929646762e-77
-1.343663726629199e-79
-5.107259740190998e-82
1
1
1
1
1
1
1
1
1
1
1
1
0.9971185951991418
0.2835143373483812
4.872778706483181e-18
9.172923751824852e-37
-6.621442442259938e-22
-4.920708264406329e-23
-9.435662917989844e-25
-1.782891854870096e-43
-4.796233499935151e-45
-5.865992486739589e-47
-2.516217306558655e-49
1
1
1
1
1
1
1
1
1
1
1
1
0.9334263397116024
0.1822711501694323
2.142733320547254e-18
-4.174080169733723e-20
-3.014235133852849e-21
-2.155301145960635e-24
-2.558011505131923e-40
-2.106438770639894e-41
-1.163520140699682e-42
-3.46128087609163e-44
-3.986519072293131e-46
1
1
1
1
1
1
1
1
1
1
1
1
0.8697039118040574
0.1187234718639423
-3.399915899568514e-20
-6.553827398924288e-21
-2.944252359650102e-24
-9.459066580830478e-40
-1.091919434204e-40
-9.279759653791344e-42
-4.580004109206095e-43
-1.109679142782972e-44
-1.02380768062216e-46
1
1
1
1
1
1
1
1
1
1
1
1
0.8058197838536918
0.07502136403236578
3.275584551090162e-20
-2.728695800404613e-37
-3.264879902708418e-39
-5.325806915870342e-40
-5.917794767106799e-41
-2.993445362309052e-42
-8.386383806497302e-44
-1.503461995470779e-45
-1.010633245552162e-47
1
1
1
1
1
1
1
1
1
1
1
1
0.7526225601153086
0.04733525857141695
9.654333195554456e-21
-2.324693297686108e-22
-8.815783661832137e-23
-7.971407775272694e-24
-3.950989750995932e-25
-1.022020288031314e-26
-1.277940512398991e-28
-5.868370541939931e-31
-1.921073175355783e-45
0
0
0
0
0
0
0
0
0
0
0
0
0
0
0
0
0
0
0
0
0
0
0
0
0
0
0
0
0
0
0
0
0
0
0
0
0
0
0
0
0
0
0
0
0
0
0
0
0
0
0
0
0
0
0
0
0
0
0
0
0
0
0
0
0
0
0
0
0
0
0
0
0
0
0
0
0
0
0
0
0
0
0
0
0
0
0
0
0
0
0
0
0
0
0
0
0
0
0
0
0
0
0
0
0
0
0
0
0
0
0
0
0
0
0
0
0
0
0
0
0
0
0
0
0
0
0
0
0
0
0
0
0
0
0
0
0
0
0
0
0
0
0
0
0
0
0
0
0
0
0
0
1
1
1
1
1
1
1
1
1
1
1
1
0.6928660878787788
0.02893461998118392
3.530530979944367e-20
-1.461415137270813e-22
-1.865176182569064e-23
-1.179497373590528e-24
-3.835941476101081e-26
-6.133935446317712e-28
-3.844005353746314e-30
-2.504190037080078e-44
-4.88000463534749e-46
1
1
1
1
1
1
1
1
1
1
1
1
0.5919616553958286
0.01006021170103282
-7.789146119685199e-24
-1.288818637503791e-23
-1.355097675546018e-24
-5.935040039157091e-26
-1.198674878847174e-27
-9.309502957035585e-30
-4.144117577879245e-38
-1.237801877724497e-39
-2.591551958436641e-41
1
1
1
1
1
1
1
1
1
1
1
1
0.5094270483947382
0.002197617972972383
-9.909201447698749e-20
-9.684596074810387e-21
-5.049700263774427e-22
-1.381387133221807e-23
-1.528422048194624e-25
-1.50480656322003e-35
-7.15026349122535e-37
-2.334890941817613e-38
-5.315800622660521e-40
1
1
1
1
1
1
1
1
1
1
1
1
0.4387933008872579
-7.855812804764155e-20
-2.049955786008595e-20
-1.862394843310143e-21
-6.55006868554672e-23
-8.41823803779689e-25
-9.307255464137349e-33
-5.723226304902856e-34
-2.33788275716464e-35
-6.40801868897845e-37
-1.158579079933439e-38
1
1
1
1
1
1
1
1
1
1
1
1
0.3780438457415155
-8.270646400642183e-19
-4.12695189322981e-20
-1.114855051921016e-21
-3.022591073694748e-23
-2.587788125447056e-24
-1.238022897258017e-25
-3.335002613025287e-27
-5.172782776618787e-29
-5.181337777145064e-31
-4.318047722995183e-33
1
1
1
1
1
1
1
1
1
1
1
1
0.326492453811968
-5.740974992489781e-20
-3.047238538889365e-21
-1.981915869329756e-22
-1.877624822389608e-23
-9.43419610570137e-25
-2.690190925493624e-26
-4.411761498965795e-28
-4.64713832283638e-30
-3.945660481991129e-32
-1.842253462485822e-34
1
1
1
1
1
1
1
1
1
1
1
1
0.2824260304684983
-1.707804021664133e-21
-4.611679218938504e-22
-6.335268465978519e-23
-3.937305392534268e-24
-1.357246086166673e-25
-2.808716848097126e-27
-3.979497445022394e-29
-4.320864823233479e-31
-2.929841524272371e-33
-1.125431344934137e-35
1
1
1
1
1
1
1
1
1
1
1
1
0.2444159785016558
-3.297838607522778e-21
-1.580189965122805e-22
-1.148047298340308e-23
-5.060453535456673e-25
-1.36835066554841e-26
-2.48419823157222e-28
-3.160105630593058e-30
-2.499662083358897e-32
-1.113884093774117e-34
-2.126423541927069e-37
1
1
1
1
1
1
1
1
1
1
1
1
0.2114251590703345
3.077639614906229e-20
8.40527082029919e-38
-8.187743550832659e-25
-3.928590492345632e-26
-9.836948135704813e-28
-1.485641266716828e-29
-1.306605740394882e-31
-6.321700703688448e-34
-1.282644802930896e-36
-2.050704414082227e-42
1
1
1
1
1
1
1
1
1
1
1
1
0.1827035911357902
-1.20942362763395e-19
-6.34608804978826e-21
-2.429146140515363e-22
-4.786561578044919e-24
-4.746998612470721e-26
-1.871702861638028e-28
-2.519190854386832e-33
-5.422584380540767e-36
-1.014590537325589e-41
-3.752461894841582e-45
1
1
1
1
1
1
1
1
1
1
1
1
0.1576574171739209
-3.788865880960959e-20
-1.685558966806067e-21
-4.535447168267417e-23
-5.41092728470542e-25
-2.398611587496725e-27
-7.677884933736059e-33
-1.780877172362436e-35
-4.293924737373366e-41
-2.228801877258027e-44
-1.565603196481359e-48
1
1
1
1
1
1
1
1
1
1
1
1
0.135854178273076
-2.086389320608928e-21
-1.439094848490633e-22
-2.638791028867267e-24
-1.463982199704736e-26
-1.852602946001601e-32
-4.76927908482283e-35
-1.588672350874705e-40
-1.08464872841388e-43
-1.293117235798092e-47
-2.007983307089322e-52
1
1
1
1
1
1
1
1
1
1
1
1
0.116707916738725
-3.807581588224041e-23
-5.598611416541605e-24
-5.104298094018729e-26
-3.518048952463583e-32
-1.061604355150841e-34
-5.215843808768061e-40
-4.486293523945236e-43
-7.652156381190255e-47
-1.862271473778702e-51
0
1
1
1
1
1
1
1
1
1
1
1
1
0.1001692466409847
-3.518340989369026e-25
-8.651825774453981e-26
-4.887649223229262e-32
-1.938398475894401e-34
-1.531365997203055e-39
-1.635418731668862e-42
-3.676133733004697e-46
-1.251692510492622e-50
-1.943706182374092e-57
0
1
1
1
1
1
1
1
1
1
1
1
1
0.08650446675788
-4.92025689288735e-27
-3.830635757497969e-32
-2.675472922207324e-34
-3.972587428115167e-39
-5.423222779115672e-42
-1.557275022108667e-45
-6.950550114418373e-50
-3.327844403473874e-56
0
0
1
1
1
1
1
1
1
1
1
1
1
1
0.07562125560060202
-5.368078113306731e-20
-1.031824451949827e-38
-1.151680642258926e-25
-7.111613442871462e-28
-6.391581205725613e-45
-4.322454173946181e-49
-7.267844680362466e-55
0
0
0
1
1
1
1
1
1
1
1
1
1
1
1
0.07055871859612516
1.835964243151081e-21
2.388782227037722e-39
-9.094410329033502e-26
-5.287301114362679e-29
-2.854432988634293e-48
-1.661929112565541e-53
-1.962000980132331e-60
0
0
0
1
1
1
1
1
1
1
1
1
1
1
1
0.1326772765929229
-1.899758794969661e-20
-3.737809927504055e-22
-2.182450830188985e-24
-1.32749609483661e-30
-3.23141756020627e-52
-1.266195871686874e-58
0
0
0
0
0.9635386189830312
0.9630006660066253
0.9620055623727707
0.9604972174240466
0.9584423319209128
0.9557913581071337
0.9524610720240847
0.9483075982947577
0.9429784885984365
0.9332825845599001
0.9091174288390118
0.8089157810343843
0.2004481566527342
3.49298165070131e-20
6.115282501216568e-37
-1.16695730213853e-23
-1.266708758981069e-38
-5.898655850456386e-57
0
0
0
0
0
0.2733695399870344
0.2717355289090445
0.2687406810966898
0.2643046360799535
0.2584388169782466
0.2511536901635036
0.2424167636561307
0.2320976396757168
0.2195699828774512
0.1986387817360161
0.1561833488611611
0.06290138756101304
0.07790636188540559
0.01876909786508891
2.621802977964511e-21
-1.995658404409584e-21
-1.690120737492908e-27
0
0
0
0
0
0
-5.566798949242632e-40
-4.087272198397915e-37
-1.033640174940051e-34
-1.239884862691642e-32
-7.972702127597891e-31
-2.915295445475173e-29
-6.224739094530758e-28
-7.786428004433767e-27
-5.59135344844469e-26
-2.176263228805067e-25
-5.830557352528621e-25
-4.254322830718629e-24
-2.780336068227142e-22
0.001822545159705609
-6.998580119058947e-21
-7.795844775803351e-22
-6.396427441988097e-28
0
0
0
0
0
0
-2.739118983062317e-50
-1.313613109277842e-40
-1.417389506797441e-37
-4.429906502917577e-35
-5.888055215399155e-33
-3.903478515268525e-31
-1.399196368813765e-29
-2.810817230107703e-28
-3.139808809029687e-27
-1.790553944548427e-26
-6.379303662297536e-26
6.018124678630955e-07
1.531408228661208e-06
5.866294494800211e-10
-3.074082001348781e-21
-6.766658641884077e-23
-9.23045903859217e-29
0
0
0
0
0
0
0
0
-8.656171705354182e-47
-2.601772209269823e-43
-2.076792368565156e-40
-4.114079892515175e-33
-8.456953743907389e-31
-6.159385379291106e-29
-1.861587341959533e-27
-2.448430051003279e-26
-1.375248563120402e-25
-3.246984125512307e-25
3.235270520460049e-08
1.281805371342268e-07
-1.798491161333207e-22
-5.676858503652438e-27
-5.539224881155807e-30
0
0
0
0
0
0
0
0
0
-3.837303474566787e-47
-1.016150535278247e-43
-8.019892567496535e-41
-4.463297575995942e-35
-4.453620391860624e-33
-1.426831271695498e-31
-1.840183262580594e-30
-9.514684124770269e-30
-1.568313837322939e-29
-3.473692026386052e-31
-4.788512343109479e-28
-1.015272175991467e-27
-2.105514050377512e-28
-1.418720163497889e-31
0
0
0
0
0
0
0
0
0
0
-2.408230623306406e-48
-1.553701354818677e-44
-1.125551197642098e-41
-3.303706105013488e-39
-2.238369392682785e-37
-5.749996456737415e-36
-6.423112198842142e-35
-2.995482899706799e-33
-2.586771987019467e-31
-4.534857499049212e-30
-3.522924736726618e-29
-2.997628436816235e-30
-1.41066363940909e-33
0
0
0
0
0
0
0
0
0
0
0
-7.845213105763137e-50
-4.191731078606816e-46
-4.516228356212412e-43
-1.321036674808761e-40
-1.930693869584955e-38
-1.472690424778465e-36
-6.560435548882784e-35
-1.780668085843248e-33
-2.797493817700567e-32
-2.855719926830106e-31
-1.509914646103389e-32
-5.011006672907989e-36
0
0
0
0
0
0
0
0
0
0
0
0
0
0
0
-3.117153166815405e-43
-6.086648967832735e-41
-8.524154768051541e-39
-5.163663033099076e-37
-8.1066926221732e-36
-3.848189111508083e-35
-2.153235387459851e-35
-3.05037161582995e-39
0
0
0
0
0
0
0
0
0
0
0
0
0
0
0
0
-1.158152273065048e-52
-9.985157987354117e-50
-3.429432630343856e-47
-5.98043859402254e-45
-5.123410104886046e-43
-3.463735405327747e-39
0
0
0
0
0
0
0
0
0
0
0
0
0
0
0
0
0
0
-1.844121958990841e-54
-1.943898520543633e-51
-7.39079135571911e-49
-7.52701000838411e-47
-6.428079606179241e-45
0
0
0
0
0
0
0
0
0
0
0
0
0
0
0
0
0
0
0
0
0
0
0
0
0
0
0
0
0
0
0
0
0
0
0
0
0
0
0
0
0
0
0
0
0
0
0
0
0
0
0
0
0
0
0
0
0
0
0
0
0
0
0
0
0
0
0
0
0
0
0
0
0
0
0
0
0
0
0
0
0
0
0
0
0
0
0
0
0
0
0
0
0
0
0
0
0
0
0
0
0
0
0
0
0
0
0
0
0
0
0
0
0
0
0
0
0
0
0
0
0
0
0
0
0
0
0
0
0
0
0
0
0
0
0
0
0
0
0
0
0
0
0
0
0
0
0
0
0
0
0
0
0
0
0
0
0
0
0
0
0
0
0
0
0
0
0
0
0
0
0
0
0
0
0
0
0
0
0
0
0
0
0
0
0
0
0
0
0
0
0
0
0
0
0
0
0
0
0
0
0
0
0
0
0
0
0
0
0
0
0
0
0
0
0
0
0
0
0
0
0
0
0
0
0
0
0
0
0
0
0
0
0
0
0
0
0
0
0
0
0
0
0
0
0
0
0
0
0
0
0
0
0
0
0
0
0
0
0
0
0
0
0
0
0
0
0
0
0
0
0
0
0
0
0
0
0
0
0
0
0
0
0
0
0
0
0
0
0
0
0
0
0
0
0
0
0
0
0
0
0
0
0
0
0
0
-1.659114606935446e-47
-2.091012800770663e-49
-1.342311506204451e-71
-4.299082710407973e-74
-8.264117926136138e-43
-1.563317588140475e-44
-1.825315427746506e-46
-1.044406463009376e-48
-1.748072234512904e-41
-3.392041269299195e-43
-3.126960899822429e-45
-9.050512481062026e-48
-2.717644311533802e-40
-3.335763095234871e-42
-1.441183919115253e-44
-3.428707032504674e-50
-4.218354643047893e-35
-1.692293418976913e-37
-4.778802199858466e-44
0
-7.404312576700455e-37
-1.628138949434118e-41
-3.428852536725853e-44
0
-3.995878927893531e-38
-2.015692962156008e-43
-4.099505570431183e-47
0
-7.276940675802846e-43
-2.479452319358509e-46
0
0
-1.070776013619183e-45
0
0
0
-2.153306223680172e-49
0
0
0
-2.479880547290922e-53
0
0
0
0
0
0
0
0
0
0
0
0
0
0
0
0
0
0
0
0
0
0
0
0
0
0
0
0
0
0
0
0
0
0
0
0
0
0
0
0
0
0
0
0
0
0
0
0
0
0
0
0
0
0
0
0
0
0
0
0
0
0
0
0
0
0
0
0
0
0
0
0
0
0
0
0
0
0
0
0
0
0
0
0
0
0
0
0
0
0
0
0
0
0
0
0
0
0
0
0
0
0
0
0
0
0
0
0
0
0
0
0
0
0
0
0
0
0
0
0
0
0
0
0
0
0
0
0
0
0
0
0
0
0
0
0
0
0
0
0
0
0
0
0
0
0
-9.600502806621147e-52
0
0
0
0
0
0
0
0
0
0
0
0
0
0
0
0
0
0
-4.216019291724716e-51
0
0
0
0
0
0
0
0
0
0
0
0
0
0
0
0
0
0
0
0
0
0
0
0
0
0
0
0
0
0
0
0
0
0
0
0
0
0
0
0
0
0
0
0
0
0
0
0
0
0
0
0
0
0
0
0
0
0
0
0
0
0
0
0
0
0
0
0
0
0
0
0
0
0
0
0
0
0
0
0
0
0
0
0
0
0
0
0
0
0
0
0
0
0
0
0
0
0
0
0
0
0
0
0
0
0
0
0
0
0
0
0
0
0
0
0
0
0
0
0
0
0
0
0
0
0
0
0
0
0
0
0
0
0
0
0
0
0
0
0
0
0
0
0
0
0
0
0
0
0
0
0
0
0
0
0
0
0
0
0
0
0
0
0
0
0
0
0
0
0
0
0
0
0
0
0
0
0
0
0
0
0
0
0
0
0
0
0
0
0
0
0
0
0
0
0
0
0
0
0
0
0
0
0
0
0
0
0
0
0
0
0
0
0
0
0
0
0
0
0
0
0
0
0
0
0
0
0
0
0
0
0
0
0
0
0
0
0
0
0
0
0
0
0
0
0
0
0
0
0
0
0
0
0
0
0
0
0
0
0
0
0
0
0
0
0
0
0
0
0
0
0
0
0
0
0
0
0
0
0
0
0
0
0
0
0
0
0
0
0
0
0
0
0
0
0
0
0
0
0
0
0
0
0
0
0
0
0
0
0
0
0
0
0
0
0
0
0
0
0
0
0
0
0
0
0
0
0
0
0
0
0
0
0
0
0
0
0
0
0
0
0
0
0
0
0
0
0
0
0
0
0
0
0
0
0
0
0
0
0
0
0
0
0
0
0
0
0
0
0
0
0
0
0
0
0
0
0
0
0
0
0
0
0
0
0
0
0
0
0
0
0
0
0
0
0
0
0
0
0
0
0
0
0
0
0
0
0
0
0
0
0
0
0
0
0
0
0
0
0
0
0
0
0
0
0
0
0
0
0
0
0
0
0
0
0
0
0
0
0
0
0
0
0
0
0
0
0
0
0
0
0
0
0
0
0
0
0
0
0
0
0
0
0
0
0
0
0
0
0
0
0
0
0
0
0
0
0
0
0
0
0
0
0
0
0
0
0
0
0
0
0
0
0
0
0
0
0
0
0
0
0
0
0
0
0
0
0
0
0
0
0
0
0
0
0
0
0
0
0
0
0
0
0
0
0
0
0
0
0
0
0
0
0
0
0
0
0
0
0
0
0
0
0
0
0
0
0
0
0
0
0
0
0
0
0
0
0
0
0
0
0
0
0
0
0
0
0
0
0
0
0
0
0
0
0
0
0
0
0
0
0
0
0
0
0
0
0
0
0
0
0
0
0
0
0
0
0
0
0
0
0
0
0
0
0
0
0
0
0
0
0
0
0
0
0
0
0
0
0
0
0
0
0
0
0
0
0
0
0
0
0
0
0
0
0
0
0
0
0
0
0
0
0
0
0
0
0
0
0
0
0
0
0
0
0
0
0
0
0
0
0
0
0
0
0
0
0
0
0
0
0
0
0
0
0
0
0
0
0
0
0
0
0
0
0
0
0
0
0
0
0
0
0
0
0
0
0
0
0
0
0
0
0
0
0
0
0
0
0
0
0
0
0
0
0
0
0
0
0
0
0
0
0
0
0
0
0
0
0
0
0
0
0
0
0
0
0
0
0
0
0
0
0
0
0
0
0
0
0
0
0
0
0
0
0
0
0
0
)
;

boundaryField
{
    leftWall
    {
        type            zeroGradient;
    }
    rightWall
    {
        type            zeroGradient;
    }
    lowerWall
    {
        type            zeroGradient;
    }
    atmosphere
    {
        type            zeroGradient;
    }
    defaultFaces
    {
        type            empty;
    }
}


// ************************************************************************* //
