/*--------------------------------*- C++ -*----------------------------------*\
| =========                 |                                                 |
| \\      /  F ield         | OpenFOAM: The Open Source CFD Toolbox           |
|  \\    /   O peration     | Version:  2206                                  |
|   \\  /    A nd           | Website:  www.openfoam.com                      |
|    \\/     M anipulation  |                                                 |
\*---------------------------------------------------------------------------*/
FoamFile
{
    version     2.0;
    format      ascii;
    arch        "LSB;label=32;scalar=64";
    class       surfaceScalarField;
    location    "0.05";
    object      alphaPhi0.water;
}
// * * * * * * * * * * * * * * * * * * * * * * * * * * * * * * * * * * * * * //

dimensions      [0 3 -1 0 0 0 0];

oriented        oriented;

internalField   nonuniform List<scalar> 
4432
(
2.941416222462629e-06
-2.941414858444669e-06
5.929327606944247e-06
-2.987909627604688e-06
9.009562734106937e-06
-3.08023359933826e-06
1.22370002319259e-05
-3.227436167928078e-06
1.567840655074732e-05
-3.441404583655445e-06
1.942000000595714e-05
-3.741590720031208e-06
2.35798287785786e-05
-4.159825158068823e-06
2.832964077855375e-05
-4.74980888615585e-06
3.393813627343236e-05
-5.60849519414865e-06
4.084417719867459e-05
-6.906045179795395e-06
5.004388518387229e-05
-9.199716078665937e-06
6.214880441991454e-05
-1.210419664976824e-05
7.793891476237361e-05
-1.578972992535085e-05
7.978932242804389e-05
-1.57719596275353e-05
0
-4.927317930085917e-07
-1.10137482494624e-22
-1.195277414276707e-23
-1.25931512256416e-44
0
-1.373020788612129e-45
0
-2.946354985054595e-47
0
-5.241651117965777e-122
0
0
0
0
0
0
2.93848901608177e-06
-5.879902464444076e-06
5.922735858716152e-06
-5.972154784055907e-06
8.99799494599955e-06
-6.155491242067023e-06
1.221817990752613e-05
-6.447619791430187e-06
1.56485493464874e-05
-6.871772156547386e-06
1.937279643969683e-05
-7.465834919354563e-06
2.350431956511083e-05
-8.291344719511754e-06
2.820533642220498e-05
-9.450823103563655e-06
3.372122189798359e-05
-1.112438119181929e-05
4.044271304879464e-05
-1.362754122206299e-05
4.901174383676878e-05
-1.776875482368966e-05
6.071568522635244e-05
-2.380738960434721e-05
7.758869520696767e-05
-3.266235046992947e-05
2.258656314830741e-05
-2.739969948614181e-05
2.117582368135751e-22
-1.938034567029853e-08
-1.620676411136724e-23
-1.186921921681402e-23
-2.598135053971878e-25
-1.834189535465691e-25
-2.893321177649779e-26
-2.238520526383979e-26
-1.11701004658888e-27
-8.108095977729132e-28
-1.182108642212398e-29
-8.858873815753001e-30
6.169873568851312e-122
0
-1.599812521845853e-129
0
0
2.919114505907427e-06
-8.799015604288198e-06
5.882371793793029e-06
-8.935410506847221e-06
8.933744297841093e-06
-9.206862435898748e-06
1.212486342093245e-05
-9.638737658017238e-06
1.551768643516144e-05
-1.026459332743586e-05
1.919053166935299e-05
-1.113867730749722e-05
2.32472732698347e-05
-1.234808299937846e-05
2.783184428111637e-05
-1.403539202839356e-05
3.315150882804446e-05
-1.644404700016578e-05
3.951586091216198e-05
-1.999189865328046e-05
4.735126176608172e-05
-2.56041635113943e-05
5.776944151425014e-05
-3.422477373680111e-05
7.04328279646573e-05
-4.532268866121332e-05
1.938034567030073e-08
-2.006030008074932e-05
-3.284767606768626e-24
-2.335503775710735e-24
-3.622666317152796e-25
-3.043843091826926e-25
-7.852032396387267e-26
-8.639380904663272e-26
-4.942555497553954e-27
-5.436501288784773e-27
-7.965798180425625e-29
-8.251426770030498e-29
-2.876279317667066e-81
0
-3.984175066147073e-83
0
-1.656414832823534e-85
0
0
2.890068297829802e-06
-1.168908260901841e-05
5.822100813413986e-06
-1.186744158185146e-05
8.837890580189427e-06
-1.22226510293207e-05
1.198585483766988e-05
-1.278670077135362e-05
1.532322673150829e-05
-1.360196347827054e-05
1.892076543662864e-05
-1.473621332863762e-05
2.286936184853608e-05
-1.629667642652777e-05
2.728923606992489e-05
-1.845526469896662e-05
3.234161316336679e-05
-2.149642591830114e-05
3.824514277029311e-05
-2.589543376951986e-05
4.523068555239238e-05
-3.258971349802971e-05
5.398058809060651e-05
-4.297384752059228e-05
4.262207221656275e-05
-5.539825318160743e-05
1.694065894508601e-21
-1.255111882080819e-05
7.191138946322957e-25
-8.652601987161664e-24
-8.241667702530993e-26
-1.062102658030858e-25
-9.728535485036123e-27
-1.445342704509253e-26
-2.479664237196275e-28
-3.481080501093541e-28
-4.344532735939782e-47
-5.729070778528427e-47
-1.315766326976384e-48
-1.843147876460984e-48
-1.748347330415612e-50
-3.208503521197258e-50
-8.001400764098056e-53
-2.739363467075984e-52
-8.055112851991483e-55
2.85181392147746e-06
-1.454089534735277e-05
5.742854009399004e-06
-1.475848037239602e-05
8.712048253334139e-06
-1.519184424669249e-05
1.180378636337438e-05
-1.587843786486257e-05
1.506945732545876e-05
-1.686763283913067e-05
1.857068490093331e-05
-1.823743844975009e-05
2.238320357577601e-05
-2.010919250415222e-05
2.660083244209982e-05
-2.267289250995885e-05
3.133642671360739e-05
-2.623202240598896e-05
3.672132282857112e-05
-3.128033527215032e-05
4.280429156140628e-05
-3.867268889219317e-05
4.985900937359876e-05
-5.002771614670553e-05
2.973517119062225e-05
-5.920112140480067e-05
8.470329472543003e-22
-7.603790951243659e-06
-8.076891054663482e-24
-4.586152570775074e-24
-1.038238552213692e-24
-1.868458167584873e-24
-4.067784047439848e-28
-7.516641795459571e-28
-4.561877786514495e-44
-7.651231740018614e-44
-3.885367460012054e-45
-6.12804487978314e-45
-2.399338781500488e-46
-4.029468320332607e-46
-8.309679948417418e-48
-1.804688851350878e-47
-1.093125382582712e-49
-4.272533858934334e-49
-3.967482656362014e-51
2.804741226022351e-06
-1.734563540635336e-05
5.645486491374721e-06
-1.759922440430892e-05
8.557737177178448e-06
-1.810409399131115e-05
1.158116387218718e-05
-1.890186361729246e-05
1.476046418898135e-05
-2.00469316332633e-05
1.814707348167602e-05
-2.162404544515969e-05
2.180042994687073e-05
-2.376254669730285e-05
2.578728984456276e-05
-2.665975181685278e-05
3.017375830457159e-05
-3.061849343408718e-05
3.501411630436782e-05
-3.612069861015954e-05
4.019914076229981e-05
-4.385771854431422e-05
4.573439491674437e-05
-5.556211339293234e-05
2.054211338880328e-05
-5.935218302132877e-05
0
-4.558081857778559e-06
-4.248635259858764e-25
1.336511249288757e-24
-2.795495931258128e-28
-6.46985596218546e-28
-1.132402513897218e-43
-2.457468635079112e-43
-1.432930291719154e-44
-2.755215111856437e-44
-1.504360799129618e-45
-2.723266481391118e-45
-9.178328073205598e-47
-1.757430574086477e-46
-2.62398715464395e-48
-6.32795637830804e-48
-2.722460001564503e-50
-1.117195696108825e-49
-7.848983211063357e-52
2.748514876701485e-06
-2.009414920692136e-05
5.529466397749865e-06
-2.038017476448154e-05
8.37424926484877e-06
-2.094887592097665e-05
1.131715591306504e-05
-2.184476929131658e-05
1.439543551141562e-05
-2.312520974518635e-05
1.764948706424592e-05
-2.487809492295204e-05
2.112177182069684e-05
-2.72348296070356e-05
2.485239972696993e-05
-3.03903795793955e-05
2.886549446348358e-05
-3.46315908920787e-05
3.314884868764974e-05
-4.040405782820018e-05
3.745796606162059e-05
-4.816684058452497e-05
4.174471205363363e-05
-5.984799016082975e-05
1.408636778944912e-05
-5.762295798888667e-05
0
-2.451189588012333e-06
6.469855962190929e-28
2.383575253133645e-24
-6.339220958848546e-44
6.416875016338364e-40
-6.849169783076947e-44
0
-1.010439951855092e-44
-3.97117124910079e-44
-6.222861816756635e-46
-1.05375235471946e-45
-1.670360932987946e-47
-2.969530840604646e-47
-3.475702819414114e-49
-8.603264269548106e-49
-2.544937349561891e-51
-1.036904611857159e-50
-4.483248201012092e-53
2.67945624438231e-06
-2.277360448177299e-05
5.386671002081899e-06
-2.308738857380351e-05
8.148643760207487e-06
-2.371084784415356e-05
1.099339654031783e-05
-2.468952115852613e-05
1.394983609262255e-05
-2.608164806644855e-05
1.704648612776094e-05
-2.797474348097612e-05
2.030849485535948e-05
-3.049683720337543e-05
2.375083556403514e-05
-3.383272034986256e-05
2.736547366276064e-05
-3.824623077063885e-05
3.10962183057149e-05
-4.413480545492928e-05
3.452226426434139e-05
-5.159288881880196e-05
3.77222077378966e-05
-6.304706184012558e-05
9.406375656111264e-06
-5.567085636263174e-05
0
-1.461649058563275e-06
6.605452540810629e-26
1.117981682404577e-25
-1.294549980357031e-26
-4.096297118543478e-26
-1.626807028933507e-27
-4.34671463583592e-27
-9.989555901345368e-29
-2.337934748318819e-28
-2.972067352160668e-30
-6.527288791112551e-30
-4.124434858319871e-32
-9.245903196726737e-32
-2.055375622322168e-34
-5.286222529489109e-34
-5.40081666903181e-49
-2.208674697974218e-48
-3.55583827914153e-50
0
0
0
0
0
0
0
0
0
0
0
0
0
0
0
0
0
0
0
0
0
0
0
0
0
0
0
0
0
0
0
0
0
0
0
0
0
0
0
0
0
0
0
0
0
0
0
0
0
0
0
0
0
0
0
0
0
0
0
0
0
0
0
0
0
0
0
0
0
0
0
0
0
0
0
0
0
0
0
0
0
0
0
0
0
0
0
0
0
0
0
0
0
0
0
0
0
0
0
0
0
0
0
0
0
0
0
0
0
0
0
0
0
0
0
0
0
0
0
0
0
0
0
0
0
0
0
0
0
0
0
0
0
0
0
0
0
0
0
0
0
0
0
0
0
0
0
0
0
0
0
0
0
0
0
0
0
0
0
0
0
0
0
0
0
0
0
0
0
0
0
0
0
0
0
0
0
0
0
0
0
0
0
0
0
0
0
0
0
0
0
0
0
0
0
0
0
0
0
0
0
0
0
0
0
0
0
0
0
0
0
0
0
0
0
0
0
0
0
0
0
0
0
0
0
0
0
0
0
0
0
0
0
0
0
0
0
0
0
0
0
0
0
0
0
0
0
0
0
0
0
0
0
0
0
0
0
0
0
0
0
0
0
0
0
0
0
0
0
0
0
0
0
0
0
0
0
0
0
0
0
0
0
0
0
0
0
0
0
0
0
0
0
0
0
0
5.491792078813019e-06
-2.826539534119229e-05
1.103266195935003e-05
-2.86282572745247e-05
1.666641975786795e-05
-2.93446045195317e-05
2.243960644530734e-05
-3.046270656749842e-05
2.839592685157254e-05
-3.203796690757766e-05
3.457251542029766e-05
-3.415133046571778e-05
4.099162210292923e-05
-3.691594298252015e-05
4.764410562613942e-05
-4.048520434223679e-05
5.44588477304784e-05
-4.506097487656391e-05
6.121993630162637e-05
-5.089589661708916e-05
6.786736036464014e-05
-5.824031343852542e-05
7.294063230028922e-05
-6.811849020170841e-05
1.343704786256385e-05
-5.053697261257418e-05
2.646977960169689e-23
-2.759944166634689e-07
-6.915582558174349e-27
-5.802805651481367e-27
-3.698529210834711e-27
-5.900498743904173e-27
-3.950806790165354e-28
-5.421282930820544e-28
-1.708675179794444e-29
-2.085003883678834e-29
-3.272717739496606e-31
-3.728810181210691e-31
-2.335108334240702e-33
-2.586596933531873e-33
-1.245009240323467e-47
-1.351975853000722e-47
-2.816667853900025e-49
-2.751972766495935e-49
-3.411680546244799e-51
-5.511317668561431e-51
5.134535474397955e-06
-3.339992988970483e-05
1.030170926125874e-05
-3.379543014840585e-05
1.552682802545156e-05
-3.456972240309126e-05
2.08344794404549e-05
-3.577035700534676e-05
2.624216970005044e-05
-3.744565607564962e-05
3.175452023679172e-05
-3.966368010051329e-05
3.735370737546589e-05
-4.251512998603873e-05
4.298384425745321e-05
-4.611534232603361e-05
4.852645457174333e-05
-5.060358758792704e-05
5.376530331456263e-05
-5.613474814111613e-05
5.836637152056959e-05
-6.284138240490491e-05
6.158742807200814e-05
-7.133770406214024e-05
5.649754356148554e-06
-4.42065731569832e-05
0
-2.6527281464567e-10
-7.675824768579443e-43
4.489499751679168e-41
-1.94312692113372e-28
-3.175399182635929e-28
-1.597606057716067e-29
-2.348141321547954e-29
-4.487261845796415e-31
-5.959278447139105e-31
-4.348853114365982e-33
-5.32625612324502e-33
-1.991192318913637e-41
-2.264176480629862e-41
-6.92984926153247e-43
-7.134383761856074e-43
-1.620943867395879e-44
-1.408756646355802e-44
-1.762192149974601e-46
-2.643522471994917e-46
4.748239087965752e-06
-3.814816803159653e-05
9.5136690706024e-06
-3.85608591538282e-05
1.430581843693344e-05
-3.936187078708726e-05
1.913139423528496e-05
-4.059593173861468e-05
2.398778340495431e-05
-4.230204413003303e-05
2.885711185568245e-05
-4.45330076658174e-05
3.369765463247059e-05
-4.735567256062232e-05
3.843151415128445e-05
-5.084920264509811e-05
4.292770943417198e-05
-5.509978473259048e-05
4.698163791961325e-05
-6.018867869833369e-05
5.028700684461477e-05
-6.614675153260371e-05
5.239004164842519e-05
-7.343889263159543e-05
1.637460133125037e-06
-3.817546157617316e-05
-1.432530541343545e-23
-6.814587696337005e-24
-2.784689536164722e-24
-4.120136389870459e-24
-2.214139077626371e-25
-3.678546391479637e-25
-8.216658709247501e-27
-1.279060906324766e-26
-1.138599929346708e-28
-1.628149348176449e-28
-5.513785335438524e-39
-7.251578145460444e-39
-3.217455249949126e-40
-3.875522742884076e-40
-1.227289273402643e-41
-1.328552906263696e-41
-3.148162556794822e-43
-2.949845227593642e-43
-4.111425844542214e-45
-5.41288074595903e-45
4.347431900413208e-06
-4.249559897234434e-05
8.699200287994885e-06
-4.291262651171117e-05
1.30519938070628e-05
-4.371466323312748e-05
1.73989225250106e-05
-4.494285930301774e-05
2.172334766133577e-05
-4.662646809975201e-05
2.599370702522243e-05
-4.880336611036012e-05
3.015679937302766e-05
-5.151876460820301e-05
3.412929619239408e-05
-5.48217000224808e-05
3.778779071590273e-05
-5.875828076856985e-05
4.095955271281691e-05
-6.336044231375991e-05
4.341290775181247e-05
-6.860010642997311e-05
4.486073824457168e-05
-7.488487225857597e-05
0
-3.29483256294551e-05
-1.42364628188213e-24
-1.503372363854038e-23
-4.633782273782356e-25
-7.404977430560914e-25
-2.649113052584306e-26
-4.637676772745071e-26
-4.643320508491912e-28
-7.74069885559103e-28
-2.666953403820984e-36
-4.125936749308398e-36
-2.158966822977612e-37
-3.084967701449989e-37
-1.080116395371549e-38
-1.414758630080756e-38
-3.456343228452384e-40
-4.092968909148476e-40
-7.046493897718155e-42
-7.378419539254574e-42
-7.771842270632685e-44
-8.630504559917649e-44
3.945079614638813e-06
-4.644067761842805e-05
7.884477253348167e-06
-4.685202306703019e-05
1.18052894550133e-05
-4.763547427209379e-05
1.569108256352325e-05
-4.882865116719906e-05
1.951642707191743e-05
-5.045181137790999e-05
2.324282174854851e-05
-5.252975982658661e-05
2.681396123070526e-05
-5.508990372987287e-05
3.015057048740473e-05
-5.815830971344693e-05
3.31455888830358e-05
-6.175330052486788e-05
3.566197170649268e-05
-6.587682652159875e-05
3.753319648018991e-05
-7.047133089326712e-05
3.857176478188748e-05
-7.592158737062076e-05
0
-2.843644862976121e-05
-1.490663625657102e-23
-2.253516593648479e-23
-6.768024037968824e-25
-1.221925462606753e-24
-4.748709594378857e-27
-9.034173556207053e-27
-7.581134205913777e-28
-1.374467842242865e-27
-5.277806148996668e-29
-8.949283358302996e-29
-1.798113947385763e-30
-2.831094384442482e-30
-3.155089047042727e-32
-4.580892857205613e-32
-3.234351883715604e-34
-4.290739724798368e-34
-2.906451432669082e-36
-3.48474686866647e-36
-1.532329817397595e-38
-1.425873852603524e-38
3.551169310026882e-06
-4.999184593361982e-05
7.089396176986772e-06
-5.039024877602629e-05
1.059520517881846e-05
-5.114128199834404e-05
1.404609448741912e-05
-5.227953911380266e-05
1.741192118885075e-05
-5.381763675759763e-05
2.065192913368141e-05
-5.576976675830531e-05
2.371169957843128e-05
-5.814967378112076e-05
2.652041315370149e-05
-6.096702368486916e-05
2.898923208215629e-05
-6.422212079209544e-05
3.101256348855154e-05
-6.790015920017387e-05
3.247255454832761e-05
-7.193132155876905e-05
3.324144163021733e-05
-7.668862141440158e-05
0
-2.454691917011327e-05
-4.458135534455787e-25
-1.555606534722932e-25
-2.444657815514042e-26
-5.055994390320165e-26
-4.582063176609355e-27
-9.657997366363133e-27
-3.229238218625117e-28
-6.478379441662541e-28
-1.173288958919488e-29
-2.211495158422429e-29
-2.221987257552657e-31
-3.912352507292818e-31
-2.46525469060553e-33
-4.033694900745071e-33
-2.302158666536687e-35
-3.482034199146059e-35
-1.159834329978076e-37
-1.614725837120493e-37
-2.979436386147238e-40
-2.326029528267277e-40
3.172830271639183e-06
-5.3164675143588e-05
6.327908117036979e-06
-5.354532532869528e-05
9.441758504676187e-06
-5.425513094173187e-05
1.248857618437839e-05
-5.532635526435907e-05
1.54364550186853e-05
-5.676551412916866e-05
1.824536006031735e-05
-5.857867069437027e-05
2.086533580242761e-05
-6.076964908740079e-05
2.323533795941278e-05
-6.333702622993304e-05
2.52833266358874e-05
-6.627011084815341e-05
2.692874692701406e-05
-6.954558071113659e-05
2.808787671586607e-05
-7.309045090809852e-05
2.866797496329468e-05
-7.726686851924364e-05
0
-2.119213753541402e-05
-1.938381658296941e-26
-7.57201011531697e-26
-9.828187978227709e-27
-2.341657690515885e-26
-9.901864199055799e-28
-2.347680780671848e-27
-4.62627644415393e-29
-1.043275042280942e-28
-1.169569025223977e-30
-2.488136397541388e-30
-1.897180236065102e-32
-3.792924020407401e-32
-2.359355296810509e-34
-4.418255079424183e-34
-1.799308107792998e-36
-3.148258761039476e-36
-7.665997962147347e-39
-1.252381208783768e-38
-2.151275632294425e-41
-1.406441164484264e-41
2.814676853345736e-06
-5.59793508016659e-05
5.608828709328302e-06
-5.633947568146925e-05
8.357035231499436e-06
-5.700333578161276e-05
1.103226139077005e-05
-5.800157966091293e-05
1.360283997030882e-05
-5.933609104049464e-05
1.603117851206691e-05
-6.100700799021083e-05
1.827282958574237e-05
-6.30112996589369e-05
2.02762408623546e-05
-6.534043789403086e-05
2.198361874391966e-05
-6.797749018264982e-05
2.333349505948772e-05
-7.089545822256539e-05
2.426584701015924e-05
-7.402280238899234e-05
2.470942439293105e-05
-7.770859779328225e-05
0
-1.828723722012164e-05
-2.716318769578417e-26
7.82204305176834e-25
-2.111257389630056e-27
-5.795993210702851e-27
-1.281621410663906e-28
-3.471500390408305e-28
-4.514996505390791e-30
-1.163322317922387e-29
-9.937116870086573e-32
-2.425385295656167e-31
-1.478660710699218e-33
-3.412459327404593e-33
-1.329208927153124e-35
-2.89546852353136e-35
-6.580899687698213e-38
-1.352081102451957e-37
-1.368954202600843e-40
-2.655664051620516e-40
-3.8754604429598e-46
-2.107631104980285e-46
2.479253252611904e-06
-5.845860267971312e-05
4.936815451400933e-06
-5.879703609595573e-05
7.346878307139193e-06
-5.941339667019658e-05
9.682653326005957e-06
-6.033735265985562e-05
1.191398625781839e-05
-6.156742208179031e-05
1.400659965337608e-05
-6.309961999358517e-05
1.592171750226679e-05
-6.492641695564878e-05
1.761630614542431e-05
-6.7035026961764e-05
1.904419888196003e-05
-6.940538450456518e-05
2.015829629445709e-05
-7.200955685402911e-05
2.091530885922801e-05
-7.477981446950269e-05
2.125735956509781e-05
-7.804880753916574e-05
0
-1.576291232780837e-05
5.795993210719016e-27
-3.9449374751625e-24
6.336969929450227e-43
1.612750240235272e-38
-7.075490640980081e-30
-2.225370814349751e-29
-2.835803366182517e-31
-8.498184900692257e-31
-5.513659419201414e-33
-1.573642629804786e-32
-5.650574458948932e-35
-1.534894661123305e-34
-3.086208249572778e-37
-7.973206753750546e-37
-6.899405307662675e-40
-1.695325979563751e-39
-1.127052435479866e-45
-2.638812680996282e-45
-6.993194620298564e-49
-3.122640055384119e-49
2.16748666708428e-06
-6.062608778249867e-05
4.313327850759222e-06
-6.094287519202327e-05
6.412454782700208e-06
-6.1512521358095e-05
8.439325740221453e-06
-6.236422137102836e-05
1.036604679230292e-05
-6.349414106676788e-05
1.216198639629587e-05
-6.489555813361472e-05
1.379374061702897e-05
-6.655817067210997e-05
1.522561433315203e-05
-6.846690125456308e-05
1.642077494346161e-05
-7.060054695096974e-05
1.734297723932008e-05
-7.293176047337313e-05
1.796128742339328e-05
-7.539812420240431e-05
1.822737698614396e-05
-7.831306853036143e-05
0
-1.35690963741785e-05
-1.165331733565528e-24
-5.807863348060385e-24
-8.081585605921236e-26
-3.110157888929772e-25
-2.277855176236498e-27
-8.4668751548791e-27
-2.911770354478531e-29
-1.037016083487659e-28
-1.392416014934519e-31
-4.757875133736238e-31
-9.703762502344883e-37
-3.181373774295715e-36
-2.344193877193449e-39
-7.370621961395262e-39
-4.816317261434153e-45
-1.451737232797444e-44
-2.092303211065778e-48
-6.057556783072945e-48
-2.114459716845944e-52
-7.581249596603461e-53
1.879095923036855e-06
-6.250518218553147e-05
3.737473219621568e-06
-6.280125031369157e-05
5.551586117418212e-06
-6.332663201196842e-05
7.29777982280995e-06
-6.411041293952972e-05
8.950805971927264e-06
-6.514716534566161e-05
1.048367925845277e-05
-6.642843028709984e-05
1.186784252494454e-05
-6.794233390762313e-05
1.3073765652555e-05
-6.967282553407176e-05
1.407208718438846e-05
-7.15988709707511e-05
1.483491250088699e-05
-7.369458751514041e-05
1.534064183648915e-05
-7.590385332520994e-05
1.554530601989791e-05
-7.851592288701731e-05
0
-1.167202840385518e-05
-2.466175320037847e-25
-6.950049813989937e-25
-1.316931222057222e-26
-6.108860571492479e-26
-2.287631512160692e-28
-1.027825110747217e-27
-1.311023382583364e-30
-5.708937941814169e-30
-2.205184936184034e-36
-9.319491084547122e-36
-5.89568410453308e-39
-2.417077574035951e-38
-1.683898318091089e-44
-6.686872246582981e-44
-1.048681908774849e-47
-4.030449825961311e-47
-9.543331707684893e-52
-3.549297156237136e-51
-3.147596444324558e-56
-8.731035647425244e-57
1.612932641759334e-06
-6.411811240658922e-05
3.206697102250856e-06
-6.439501158679744e-05
4.759796888027661e-06
-6.487972865772879e-05
6.250855040242224e-06
-6.560146821598244e-05
7.657417823773855e-06
-6.655372563839477e-05
8.955950459420198e-06
-6.772696132451882e-05
1.012210233944041e-05
-6.910848541942424e-05
1.113136227354249e-05
-7.0682086343738e-05
1.196025582819076e-05
-7.242776676058255e-05
1.258735757717288e-05
-7.432169038883514e-05
1.299920634280531e-05
-7.631570140677148e-05
1.315920713273875e-05
-7.86741409575864e-05
0
-1.001960825472669e-05
-7.710771889356456e-27
-1.808045500657937e-26
-5.949596577611125e-28
-3.370168471896566e-27
-5.19727539081843e-30
-2.914565090620718e-29
-3.676351764164524e-36
-2.038916352414618e-35
-1.135610495069314e-38
-6.233857603182688e-38
-4.838370148662399e-44
-2.6229994845507e-43
-4.000734392206044e-47
-2.132898865546581e-46
-6.074195608408307e-51
-3.171491024488508e-50
-1.181160024220978e-55
-6.022090269451364e-55
0
0
1.367236244987511e-06
-6.548534916201495e-05
2.717288960185377e-06
-6.574506395360046e-05
4.031065335786719e-06
-6.619350478146062e-05
5.289700583592576e-06
-6.68601036652981e-05
6.47355312535093e-06
-6.77375790244107e-05
7.562244513322588e-06
-6.88156547234159e-05
8.534932463098172e-06
-7.008117683916656e-05
9.370973436080918e-06
-7.151813213044016e-05
1.005125824633539e-05
-7.31080577075626e-05
1.055900107467118e-05
-7.482943730097717e-05
1.088905724746508e-05
-7.664575958644185e-05
1.101135312722105e-05
-7.879469770529745e-05
0
-8.577285908749832e-06
-7.453004526988035e-29
-2.147894334739548e-28
-8.880293484547831e-30
-6.416200002380372e-29
-4.283652024078178e-36
-3.144419080545932e-35
-1.673820966224675e-38
-1.262384899805611e-37
-1.136197322248145e-43
-8.813206473117728e-43
-1.180246443606622e-46
-9.359819034094903e-46
-2.519563801402025e-50
-2.021188137238504e-49
-7.851573501369343e-55
-6.299744856818899e-54
0
0
0
0
1.139799873807797e-06
-6.66251464218423e-05
2.264701905834318e-06
-6.686996259546381e-05
3.358289276382787e-06
-6.728708902137593e-05
4.404375572586701e-06
-6.790618726222891e-05
5.38610972490094e-06
-6.87193112047905e-05
6.285934012951669e-06
-6.971547828393193e-05
7.085735710524639e-06
-7.088097924184507e-05
7.767460817061026e-06
-7.219985920345268e-05
8.314722669099154e-06
-7.365532307475588e-05
8.713118039636723e-06
-7.522783436756407e-05
8.965371316316808e-06
-7.689801408234645e-05
9.050145697783485e-06
-7.887780089086603e-05
0
-7.378840206169933e-06
-2.926004830926757e-31
-1.012108363155752e-30
-2.812872761359181e-36
-2.680638930480747e-35
-1.8139632428199e-38
-1.868967655172533e-37
-2.152756301587305e-43
-2.494761807372137e-42
-2.684637660925533e-46
-3.517216760679404e-45
-7.105570869109953e-50
-1.044182237775319e-48
-3.024812558849814e-54
-4.868634267981048e-53
-1.448034103685579e-60
-2.479197849802361e-59
0
0
0
0
9.280896288659475e-07
-6.755323102645823e-05
1.843829506123634e-06
-6.778569709009762e-05
2.733684649910371e-06
-6.817693937234797e-05
3.584352042175836e-06
-6.875685067248686e-05
4.381874456152395e-06
-6.951683067366853e-05
5.111308214665373e-06
-7.044491049423271e-05
5.756350594303442e-06
-7.152602138336584e-05
6.299509503689268e-06
-7.274301841098318e-05
6.724184231749624e-06
-7.407999862326316e-05
7.016102861133849e-06
-7.551974770302388e-05
7.186859098888034e-06
-7.706876186776014e-05
7.218446717933502e-06
-7.890783077792902e-05
0
-6.43676841737172e-06
-4.316014218476796e-39
2.653412990367011e-30
-1.236070866502844e-38
-1.572925013552054e-37
-3.315450684048436e-43
-5.460642713727591e-42
-4.64676908182252e-46
-1.140462908732465e-44
-1.117484928611399e-49
-4.736302878218638e-48
-3.086689513826197e-54
-3.218589290460962e-52
-0
-5.414242473634162e-58
0
0
0
0
0
0
7.2982311864136e-07
-6.828305154342487e-05
1.450004298863512e-06
-6.85058758399539e-05
2.150068133168493e-06
-6.887700088319804e-05
2.819954774066989e-06
-6.942673542829405e-05
3.449111096518791e-06
-7.014598592109882e-05
4.02580631234066e-06
-7.102160578030469e-05
4.535401827987905e-06
-7.203561820980848e-05
4.957657488166169e-06
-7.316527669248875e-05
5.265194487430859e-06
-7.43875398423975e-05
5.427671598360604e-06
-7.568222670957911e-05
5.467784570048411e-06
-7.710887868756858e-05
5.411484220615515e-06
-7.885016014977054e-05
-5.293955920339377e-23
-5.608678898744116e-06
-8.207525792516563e-31
3.461969770469142e-25
-2.530060296471283e-45
6.887089542683573e-43
-2.045463952598821e-31
-7.905032534389294e-30
9.515372520805875e-54
-2.883963085374269e-32
4.069496423438467e-58
-2.123768725031784e-51
8.104889152024905e-65
-1.237997623303262e-56
-0
-1.461663473862093e-63
0
0
0
0
0
0
5.421056627966631e-07
-6.882513842630097e-05
1.076856629615001e-06
-6.904060785133389e-05
1.597329784259722e-06
-6.939745520629115e-05
2.097007250701599e-06
-6.992639457177518e-05
2.569703493102546e-06
-7.061866424987005e-05
3.00935125135142e-06
-7.146123583632437e-05
3.407961899600743e-06
-7.24342106861253e-05
3.748445645283734e-06
-7.350574075635476e-05
3.985236465572148e-06
-7.46243078736001e-05
4.018996358467028e-06
-7.571595722283647e-05
3.73109100223876e-06
-7.68209311709734e-05
2.977026547120116e-06
-7.809505994096199e-05
0
-6.894423056262563e-06
3.326501116498673e-27
-2.426094102376798e-25
-1.639375250018828e-29
-3.286488365193442e-28
7.195427761229848e-36
-4.274219504407772e-30
1.358613346813725e-56
-9.889660822648735e-34
9.102858938623554e-63
-2.406885995696935e-55
0
-9.432983342724169e-62
0
0
0
0
0
0
0
0
3.575877718898689e-07
-6.918263407631003e-05
7.077723660978207e-07
-6.93906999836897e-05
1.049129136463356e-06
-6.973871882255232e-05
1.378386415584289e-06
-7.025555763537171e-05
1.693689829967656e-06
-7.093387187650073e-05
1.996296397249159e-06
-7.176374429536323e-05
2.293265514849176e-06
-7.273107829724531e-05
2.599248994602898e-06
-7.381161774187808e-05
2.9184487010871e-06
-7.494339407419014e-05
3.173214196121419e-06
-7.597059863496845e-05
3.017672094957199e-06
-7.66652347083351e-05
1.773590491934471e-06
-7.685024892970698e-05
0
-1.636595066648812e-05
-1.051297972250506e-25
4.566283890950636e-24
-1.077790487656492e-27
-2.876996097512823e-26
3.003821992964946e-43
-5.992504569240574e-29
5.127187714171877e-61
-6.758977561386116e-42
-0
-4.394416663804931e-60
0
0
0
0
0
0
0
0
0
0
1.668380029010926e-07
-5.502223202673573e-05
3.246006093849165e-07
-5.505519628978716e-05
4.795219156989098e-07
-5.509622596546925e-05
6.294927420401093e-07
-5.514945630930937e-05
7.745257968153116e-07
-5.520236536944358e-05
9.182373317874617e-07
-5.523813968815978e-05
1.07329835292915e-06
-5.52336234348947e-05
1.282663222360833e-06
-5.516139937362371e-05
1.685371227914979e-06
-5.496292182386258e-05
2.706330375127809e-06
-5.403041883200736e-05
4.633003927944865e-06
-5.020629732174319e-05
6.563868060187778e-06
-3.604855089600472e-05
2.769037200940162e-09
-1.408502410377095e-05
1.505207692505486e-24
2.769037200940247e-09
-6.673880247826316e-27
-2.356956329534845e-25
3.365670007353313e-44
-2.525856469899786e-28
-0
-2.950373442724483e-43
0
0
0
0
0
0
0
0
0
0
0
0
1.058923231717784e-08
5.924146433897146e-45
1.712812809697731e-08
6.125387295149397e-42
2.534903665527563e-08
2.087200666240998e-39
3.342394975863455e-08
3.271309947327225e-37
4.158466789189054e-08
2.685995829027161e-35
5.029978595160067e-08
1.231400768705647e-33
5.962416038346487e-08
3.246007962544407e-32
7.00829049624617e-08
4.943739259597675e-31
1.240986623017457e-07
4.273475820124412e-30
5.267512497128405e-07
2.012840263542204e-29
1.900351346760711e-06
4.455433163832647e-29
2.7204738089734e-06
-5.44675801127411e-11
5.430998702836191e-06
-1.084045937806317e-07
0
6.819075441735012e-07
8.710539110825445e-26
4.860002151715918e-25
1.582932467299511e-32
-2.923457299722575e-25
-0
-1.644985594600747e-31
0
0
0
0
0
0
0
0
0
0
0
0
3.6315471334839e-43
7.160177278815664e-56
2.517033668337422e-40
3.22015869931193e-52
5.924473684291862e-38
8.213378850955051e-43
6.495802384615926e-36
5.54362493405081e-40
3.728913067526529e-34
1.196911765421921e-37
1.17885664352542e-32
1.150372048466232e-35
2.078054982084138e-31
5.613998762635414e-34
1.996063193762412e-30
1.481766629469772e-32
9.656528686932771e-30
2.153119429402923e-31
1.858822692864828e-29
1.611124037755457e-30
1.507417272625274e-28
6.919278963366489e-30
-1.272380423686058e-25
-5.446758011274098e-11
-1.079144207817982e-07
-4.901729988334524e-10
7.543292999980874e-25
-2.246272453297133e-13
2.829104646175981e-26
-1.132738982222693e-24
2.174005039928721e-32
-5.038852486474118e-26
-0
-3.957773856881507e-32
0
0
0
0
0
0
0
0
0
0
0
0
1.983101604083355e-53
0
9.786234919029999e-44
-0
9.913537899172669e-41
-0
2.870600153936467e-38
3.320556953175544e-49
3.474641019001741e-36
7.310002368382958e-46
2.049415387341232e-34
4.493735032947332e-43
6.332053914130104e-33
7.594796397886473e-36
1.04092517613289e-31
1.18992341435359e-33
8.425896603845606e-31
6.597686575163843e-32
2.308626408230343e-30
1.406278768906201e-30
0
1.159927584779037e-29
-3.031310475153001e-10
3.521470779259885e-29
-1.201196970104929e-25
2.977118499540581e-29
3.462840518335704e-25
-6.616683403842594e-13
4.212173381452118e-30
-1.339801934942449e-25
3.499331570625472e-33
-2.603228816301543e-30
0
-2.880438391965998e-33
0
0
0
0
0
0
0
0
0
0
0
0
0
0
0
0
6.448727667985898e-50
0
1.910730639442645e-46
-0
1.487385786931741e-43
1.005891524621361e-49
3.06492875378553e-36
2.06665093392574e-46
5.703063198015721e-34
1.301400790421091e-43
3.681412380702891e-32
6.20505359841621e-38
9.07349263201174e-31
4.361574835829331e-36
8.722769468020202e-30
9.127968983579362e-35
3.132581145306122e-29