/*--------------------------------*- C++ -*----------------------------------*\
| =========                 |                                                 |
| \\      /  F ield         | OpenFOAM: The Open Source CFD Toolbox           |
|  \\    /   O peration     | Version:  2206                                  |
|   \\  /    A nd           | Website:  www.openfoam.com                      |
|    \\/     M anipulation  |                                                 |
\*---------------------------------------------------------------------------*/
FoamFile
{
    version     2.0;
    format      ascii;
    arch        "LSB;label=32;scalar=64";
    class       volScalarField;
    location    "0.05";
    object      p;
}
// * * * * * * * * * * * * * * * * * * * * * * * * * * * * * * * * * * * * * //

dimensions      [1 -1 -2 0 0 0 0];

internalField   nonuniform List<scalar> 
2268
(
100461.4700640251
100452.6962259688
100434.3149089952
100406.0843389369
100367.5991388175
100318.2536455795
100257.2128006553
100183.3551104944
100095.1942690233
99990.70869750204
99867.81449307829
99722.66865014094
99525.93031083273
99283.69845375896
99147.91522261388
99141.73390745636
99141.32358876284
99141.24286157271
99141.0517017672
99140.88921538304
99140.77802572462
99140.70794481237
99140.67609478955
100403.9265775304
100395.1620154638
100376.7962790596
100348.5910736088
100310.1370437243
100260.8215482448
100199.7948138451
100125.9019223268
100037.5811795574
99932.56724993953
99808.63752602179
99660.37931445437
99448.86828086329
99207.31867943503
99142.76568055716
99141.39096606351
99141.24077969282
99141.14007188496
99140.96519564225
99140.81488463552
99140.70750105276
99140.63866471374
99140.60721085782
100347.9374303579
100339.1958895464
100320.8755241969
100292.7423482253
100254.3825494792
100205.1754221996
100144.2528412066
100070.4160629166
99982.0032118594
99876.42699876867
99751.35109704446
99598.27977769883
99369.34538222944
99142.06196945407
99141.07540658215
99141.14492971518
99141.13739914291
99141.01680472725
99140.8617180998
99140.72611922697
99140.624159684
99140.55716361215
99140.52603626237
100293.505448021
100284.7994972932
100266.5537567798
100238.5389884641
100200.3373897528
100151.3207372471
100090.6027814507
100016.9405715543
99928.57285455796
99822.59607463931
99696.62088578465
99538.19458590403
99299.00260353829
99141.53846436593
99141.03771737697
99140.99836619117
99140.9991704587
99140.88488421038
99140.74823844036
99140.62546564289
99140.5294464406
99140.46400464124
99140.43252909661
100240.637701601
100231.9800142497
100213.8398243164
100185.9928717921
100148.019095097
100099.2858494585
100038.8944178779
99965.56972373597
99877.48022436253
99771.49219467014
99645.35251789792
99483.08328672119
99243.83846852051
99141.90695185939
99140.96800868651
99140.8846193819
99140.85865146469
99140.74998448817
99140.62753105878
99140.51611818557
99140.42495273981
99140.36001938995
99140.32653300295
100189.3560062267
100180.7613525201
100162.7615850676
100135.1377338093
100097.4706299962
100049.1288927651
99989.21194790557
99916.43471375681
99828.94320884081
99723.51494252266
99598.28530403768
99434.53457386173
99204.6775141637
99142.05810456479
99140.89858191117
99140.77695343594
99140.71844854455
99140.61306689809
99140.50271394971
99140.39987068229
99140.31237693607
99140.24606440673
99140.20726630729
100139.5752832479
100131.0598626826
100113.2352804901
100085.8875455145
100048.6018994474
100000.7544473715
99941.45463104207
99869.43209516442
99782.85949202711
99678.5901911043
99555.40580680089
99392.73957092152
99178.53121004321
99142.20273877295
99140.82941645791
99140.66343873668
99140.57682339339
99140.47534754623
99140.37413252503
99140.27867430881
99140.19341796551
99140.12313972051
99140.07278578718
100090.8377188875
100082.3954346153
100064.7489920354
100037.686277527
100000.7984753647
99953.47240528796
99894.83569700904
99823.65270954069
99738.16347788974
99635.4499448299
99514.91405425133
99355.78161511
99161.58223167875
99141.74275764525
99140.74635233026
99140.53552484696
99140.43126011849
99140.3351567262
99140.24309293547
99140.15410929524
99140.07000390498
99139.99265166864
99139.91888024671
99139.61362187844
99139.60504937539
99139.58898455319
99139.56800875417
99139.54460147537
99139.52054855763
99139.4969751372
99139.47456531685
99139.45371565371
99139.43464723417
99139.41747509496
99139.40225046928
99139.38898702516
99139.37767730429
99139.36830328371
99139.36084317659
99139.35527580381
99139.3515833188
99139.34974995491
99139.5568157206
99139.54811077856
99139.53169652632
99139.51034380017
99139.48664363411
99139.46239202141
99139.43869535087
99139.41621221857
99139.39532091576
99139.3762305729
99139.35904850592
99139.3438210655
99139.33055881155
99139.31925229268
99139.30988220776
99139.30242595088
99139.29686183715
99139.29317187393
99139.29134041964
99139.50139560926
99139.49241872063
99139.47524649897
99139.45310298637
99139.42880607078
99139.40415783171
99139.38021547114
99139.35758648842
99139.3366127418
99139.31747936287
99139.30027820096
99139.28504583132
99139.27178658324
99139.26048701275
99139.25112525787
99139.24367707098
99139.23811973042
99139.23443463624
99139.23260531825
99139.44737917247
99139.43804826213
99139.41963728415
99139.39625069445
99139.37105141582
99139.34581698617
99139.32151469542
99139.29867342811
99139.27758062101
99139.25838582001
99139.24115818861
99139.22591997159
99139.21266634724
99139.20137801472
99139.19202935438
99139.18459370591
99139.17904681074
99139.17536911136
99139.17354339128
99139.39476426627
99139.38511103827
99139.36485088174
99139.33971939397
99139.31331871453
99139.28732611323
99139.26256449179
99139.23945504084
99139.21821352257
99139.19894325247
99139.18168455415
99139.16644134477
99139.15319708953
99139.14192500412
99139.13259466243
99139.12517631194
99139.11964371683
99139.11597608066
99139.11415540532
99139.34317124162
99139.3337777877
99139.31083777308
99139.2834015702
99139.25552342384
99139.22862747456
99139.20332767094
99139.17990819675
99139.15849707487
99139.13914298134
99139.12185225116
99139.10660719065
99139.09337750271
99139.08212760361
99139.07282140119
99139.06542548889
99139.05991128839
99139.05625653725
99139.05444238018
99139.29176897788
99139.28431541828
99139.25747823925
99139.22712830502
99139.19755444651
99139.16964933921
99139.14375932729
99139.12000499853
99139.09841413841
99139.07897479909
99139.06165538634
99139.04641430691
99139.03320609867
99139.02198542522
99139.01270988994
99139.00534200807
99138.99985058064
99138.99621170496
99138.99440559886
99139.24534680789
99139.23707015903
99139.20454945666
99139.17066558806
99139.1392753445
99139.11030774575
99139.08380809863
99139.0597140178
99139.03794588022
99139.01842748674
99139.00108741084
99138.98585912662
99138.97268122516
99138.96149805166
99138.9522605104
99138.94492676602
99138.93946281644
99138.93584300208
99138.93404655202
100016.8977082225
100008.5825601933
99991.26227428563
99964.72157052932
99928.57009139903
99882.22451877757
99824.86391784654
99755.34833593207
99672.10495358759
99572.78459908106
99456.45482484261
99306.30656770295
99150.41486806127
99141.28227167661
99140.53665384339
99140.29856884014
99140.19310415314
99140.11271935989
99140.03548147209
99139.95645795816
99139.87347936843
99139.77997839905
99139.62737743455
99924.56308451587
99916.55982587651
99899.93707123889
99874.50378943901
99839.92138015084
99795.69464271024
99741.14554924829
99675.37012004119
99597.1982741066
99504.96299330052
99398.86309138192
99263.90730437431
99141.49677069446
99139.16408210779
99139.84115803435
99139.8654232429
99139.8398025861
99139.80304788127
99139.75296118709
99139.69137216768
99139.61885709284
99139.53390000552
99139.4307546363
99839.14298148837
99831.51525606561
99815.72938081391
99791.62927972202
99758.94052740956
99717.27382156244
99666.11713095551
99604.82591829541
99532.63928822456
99448.51579628837
99353.72103785856
99234.29077499321
99139.25629739076
99138.57992944535
99139.28960244328
99139.4593672997
99139.50407121102
99139.50567412771
99139.48031775391
99139.43689103982
99139.38012121318
99139.31251983042
99139.235540601
99760.4360626074
99753.24804896866
99738.42747335939
99715.85743177099
99685.33312433481
99646.57529438373
99599.23656931614
99542.91438985485
99477.19993762759
99401.54239127136
99317.9143555023
99213.02612083056
99138.90339974336
99138.70086572807
99139.01220895935
99139.16189343134
99139.22035900479
99139.23672562827
99139.22585919786
99139.19612994617
99139.15283026091
99139.0991433303
99139.03707792889
99688.15890326236
99681.46132839686
99667.70350812594
99646.80726940102
99618.63514263999
99583.00990753871
99539.72947218042
99488.59144452457
99429.45449182995
99362.10481011243
99288.88580296126
99197.02888671876
99138.94725998373
99138.76881743004
99138.86614428145
99138.9431191256
99138.98222737819
99138.99635284078
99138.99041043456
99138.96876030158
99138.9351104115
99138.89222908931
99138.84229634039
99621.96188607758
99615.79071093776
99603.16028778272
99584.02754682898
99558.3147451394
99525.93145050918
99486.79286527586
99440.84749176689
99388.13749217321
99328.65533255758
99264.8665346364
99184.4889516637
99138.83514655381
99138.68365436245
99138.716181992
99138.75002867755
99138.76942817806
99138.77634315891
99138.77041975925
99138.75289356279
99138.72581502439
99138.69113946008
99138.65070675577
99561.44169912636
99555.8182452347
99544.34865649235
99527.01953824448
99503.8025832346
99474.67617650602
99439.64353262748
99398.75820338303
99352.17678272747
99300.00499477325
99244.67627346278
99174.47761919732
99138.66754545616
99138.53865213656
99138.55060037326
99138.56256049409
99138.56867770194
99138.56901324056
99138.56153579887
99138.54604523568
99138.52340602038
99138.49482685764
99138.46164151779
99506.15553376504
99501.08781041084
99490.78521143839
99475.2579990666
99454.51649163401
99428.59047040857
99397.54501702478
99361.50133974521
99320.67969631968
99275.23937622673
99227.49255587519
99166.41000933922
99138.47902028839
99138.36873759334
99138.37396872768
99138.37515509411
99138.37346186514
99138.36914970775
99138.36017336727
99138.34581069762
99138.32629931302
99138.30231228357
99138.27473887433
99455.63523096316
99451.11993599775
99441.96815600073
99428.20809891429
99409.87884046359
99387.04660547174
99359.81737066027
99328.35223279161
99292.90072773291
99253.63996045632
99212.71089585891
99159.87640311662
99138.28153617695
99138.18711765279
99138.19032258572
99138.18653671937
99138.1807179022
99138.17364743631
99138.1637208809
99138.15021803962
99138.1331009734
99138.1127135688
99138.08961281358
99409.40027563368
99405.42499280788
99397.39053939683
99385.33819825898
99369.32768286527
99349.45002964679
99325.83681560788
99298.67023394884
99268.20783858867
99234.62485372626
99199.86471275368
99154.5749014605
99138.08050521104
99137.99976788806
99138.0026499073
99137.99688651325
99137.98917700048
99137.9806922726
99137.97040614705
99137.95776984164
99137.94266512002
99137.92525234081
99137.90585546415
99366.96823086354
99363.51349773335
99356.54996051695
99346.12817136108
99332.32237697582
99315.24024690347
99295.02905507057
99271.88109193514
99246.05106835364
99217.70374683013
99188.57374225794
99150.27121679876
99137.87853111769
99137.80980812082
99137.81329017913
99137.80685091311
99137.79833845876
99137.7892556819
99137.77904492617
99137.76735488162
99137.75407534806
99137.73926156996
99137.72307188209
99327.86112154587
99324.90212217713
99318.95361477879
99310.0726376762
99298.34375625267
99283.88622256571
99266.85778541175
99247.45640417533
99225.93181489821
99202.4390789537
99178.50507433675
99146.77804365395
99137.67734013454
99137.61973122896
99137.62355831024
99137.61694279179
99137.60801830408
99137.59870768702
99137.58879660971
99137.5781184412
99137.56658618685
99137.55416848019
99137.54089285775
99291.62160933469
99289.12947414845
99284.13318841023
99276.69435858339
99266.90514147404
99254.89381145223
99240.82714971891
99224.9095281316
99207.39060505932
99188.42459952741
99169.34446423498
99143.92455316694
99137.47867553502
99137.43142627832
99137.43469276778
99137.42769939429
99137.41813765799
99137.40855136159
99137.39896185564
99137.38933234215
99137.37955318006
99137.36946940247
99137.35897977166
99257.85557631587
99255.79880111467
99251.68756659279
99245.58643055444
99237.59326643027
99227.84451529778
99216.517750496
99203.82936323991
99190.04003017148
99175.31580520717
99160.81356588675
99141.57545663054
99137.28484221052
99137.24671796779
99137.24794878777
99137.23954348419
99137.22845555485
99137.21818596929
99137.20880799371
99137.20028055989
99137.19238297261
99137.18470721711
99137.17702211987
99226.20194761477
99224.5478749473
99221.25190567144
99216.37923851689
99210.03074212956
99202.34991968313
99193.52886873184
99183.80890192559
99173.48907995202
99162.772837436
99152.6452263446
99139.61026803761
99137.09877900721
99137.06719565352
99137.06488033365
99137.05257961311
99137.03826475116
99137.02669152543
99137.01741175164
99137.01013842344
99137.00449499064
99136.99945061909
99136.99474536597
99195.64851969427
99194.36016696153
99191.79980998242
99188.02926507589
99183.14681594635
99177.29703577574
99170.6843433465
99163.5886047113
99156.40223430304
99149.47137891543
99143.76460683094
99137.68285418321
99136.89543754904
99136.89695388678
99136.88696113402
99136.86605618671
99136.84593081685
99136.83250398171
99136.82349158487
99136.8181321162
99136.81510452578
99136.81328992939
99136.81196479939
99164.59105941039
99163.62683034882
99161.71802521728
99158.91927942976
99155.31737944303
99151.04321703222
99146.28962987733
99141.34595310889
99136.69234793789
99132.91338931373
99131.53999288031
99134.36766968289
99136.68056054902
99136.75737951053
99136.71693335182
99136.67710929181
99136.64826775665
99136.63264096891
99136.62518715671
99136.62304913353
99136.62385174716
99136.62603942699
99136.62863523151
99138.61926746536
99137.97959686011
99136.72310246888
99134.89864023679
99132.57199263114
99129.84199066408
99126.84966364305
99123.80147022389
99121.06281652526
99119.12648933745
99119.76868738154
99125.88669034088
99136.5496289553
99136.68442070876
99136.5466600974
99136.47600797923
99136.43829352307
99136.42332786547
99136.42054341237
99136.42405598037
99136.43038896831
99136.43766935916
99136.44486254218
99134.00069619312
99133.73983247993
99133.22252490782
99132.48712987569
99131.56782071944
99130.51677395825
99129.40117619725
99128.2910281806
99127.26005640328
99126.41453216155
99127.58362457276
99134.7838310565
99136.76878307975
99136.76202501872
99136.33546450548
99136.2417494604
99136.20394968966
99136.19956545264
99136.2079453996
99136.22089247812
99136.23492138897
99136.24853205773
99136.2610152104
99150.82726402386
99150.73332133175
99150.55395413717
99150.28915521652
99149.93931136485
99149.50521073578
99148.98511531143
99148.3729252428
99147.63133628499
99146.35457223096
99143.58541142551
99137.58792536589
99137.42046131993
99135.9893777461
99135.81755212054
99135.90041169192
99135.93036162709
99135.95895198255
99135.98809493385
99136.01477260442
99136.03854918476
99136.05951273118
99136.07778429524
99133.87421844949
99133.88258700757
99133.89390280358
99133.91082314428
99133.9330482217
99133.96025172983
99133.99170523365
99134.02549771834
99134.05669408107
99134.07337493368
99134.04275197073
99133.90254587404
99133.35295102432
99133.77127566222
99135.08816983565
99135.47758413354
99135.62775635322
99135.71073389419
99135.76665463322
99135.80910937965
99135.84342223857
99135.87203283302
99135.89615357894
99133.85361318021
99133.85930524056
99133.87017972545
99133.88659627312
99133.9085561744
99133.93595374389
99133.96847163232
99134.00521709646
99134.04488589923
99134.08544730023
99134.10569181647
99134.05785576401
99133.99292648712
99134.2215409264
99134.8034931149
99135.16389681668
99135.36004201464
99135.47629469581
99135.55283767807
99135.60869808032
99135.65230874628
99135.6878074749
99135.71725503617
99133.83914275825
99133.8447438772
99133.85618539674
99133.87350138383
99133.89676233608
99133.92603096561
99133.96132107596
99134.0025728086
99134.05014842871
99134.10351248464
99134.15258324058
99134.19327909393
99134.29325548634
99134.51168812998
99134.79453511872
99135.00839857728
99135.16230585259
99135.27369440519
99135.35555643079
99135.41812222308
99135.46778712736
99135.50841529456
99135.54213343884
99133.81647562914
99133.8220696878
99133.8337400704
99133.85150547276
99133.87548278924
99133.90584031941
99133.94279186527
99133.98666642283
99134.03806925486
99134.0966630897
99134.1597973443
99134.23542730509
99134.35272368374
99134.52258637265
99134.72044083566
99134.87536882781
99134.99789601278
99135.09615292818
99135.17490435517
99135.23866008435
99135.2910555456
99135.33478580105
99135.37149590634
99133.78598972778
99133.79159426792
99133.80334197539
99133.82127507807
99133.84553581983
99133.87633795427
99133.91398138998
99133.95891599364
99134.01173465632
99134.07267848257
99134.14250313581
99134.22770576942
99134.33778076594
99134.47195349185
99134.61410360939
99134.73861518783
99134.84366185011
99134.93207560135
99135.00633550002
99135.06887439985
99135.12186347395
99135.16707239854
99135.2056133368
99133.7477251603
99133.75328581654
99133.76493915445
99133.78273816986
99133.80682144238
99133.83739424392
99133.87474160682
99133.91925615807
99133.9714064118
99134.03165948408
99134.10126423753
99134.18347561355
99134.28069799548
99134.38999656822
99134.50171104676
99134.60516486717
99134.69687157683
99134.77705855681
99134.84667903096
99134.90701446903
99134.95938935986
99135.004958473
99135.04441914283
99133.70183333039
99133.70728337781
99133.71868236604
99133.73607957874
99133.7595898867
99133.78937919198
99133.82567027328
99133.86874759928
99133.91894056603
99133.97665513029
99134.04268323084
99134.11814894668
99134.20298118172
99134.29444393136
99134.3871926034
99134.47550438048
99134.55634192945
99134.62917107224
99134.69411677097
99134.75173730272
99134.80277726638
99134.8479540246
99134.88765849332
99133.64856850014
99133.65384855612
99133.6648624567
99133.68164721847
99133.70428413403
99133.7328865874
99133.76759847847
99133.80858872867
99133.85604064017
99133.91016695062
99133.97124474778
99134.03936431579
99134.11372899171
99134.1921879833
99134.2715277464
99134.3483848842
99134.42043835866
99134.48681203544
99134.54726677825
99134.60195270828
99134.65123745365
99134.69552693947
99134.73498859393
99133.58826605164
99133.59333122436
99133.6038659022
99133.61989162234
99133.64145419939
99133.66861372818
99133.70143828136
99133.73999409546
99133.78433216026
99133.83447043219
99133.89034194771
99133.95161029539
99134.01735449946
99134.08594482769
99134.15527859381
99134.22323491213
99134.2880145618
99134.3487318425
99134.40500493997
99134.45673831765
99134.50405675078
99134.5471515149
99134.58603374672
99133.52131461263
99133.52613595565
99133.53613385667
99133.55131456157
99133.57169160291
99133.59727816842
99133.62807818064
99133.6640756562
99133.70521577209
99133.75137570033
99133.80230831784
99133.85752984147
99133.91618430942
99133.97702494745
99134.03858165978
99134.09939291471
99134.15812873765
99134.21395790247
99134.2664258662
99134.31531530801
99134.360602125
99134.40233409715
99134.44041725039
99133.44812934831
99133.45269269947
99133.46212867661
99133.47643032517
99133.49558452409
99133.51956661187
99133.54833101654
99133.58180079752
99133.61984866549
99133.66226870636
99133.7087350988
99133.7587398996
99133.81153739814
99133.86615389194
99133.92150391745
99133.97650521219
99134.03012500762
99134.08176410182
99134.13081413414
99134.17703674595
99134.22032272107
99134.26062482159
99134.29778019068
99133.36912963008
99133.37343324364
99133.382308628
99133.39573852732
99133.4136889692
99133.43610682047
99133.46291214449
99133.49398704249
99133.52916003104
99133.56818473412
99133.61071303379
99133.65626210449
99133.70419094808
99133.75372681992
99133.80403206644
99133.85428302326
99133.9037573708
99133.95162959131
99133.99760287112
99134.04136841558
99134.08274599219
99134.12162284651
99134.1577917813
99133.28472191881
99133.28877383462
99133.29711017347
99133.30970602593
99133.32651247419
99133.34745715132
99133.37243727241
99133.40131057815
99133.43388297463
99133.46989404254
99133.50900219637
99133.55076522416
99133.59463246138
99133.63997702571
99133.68612735927
99133.73242101945
99133.77824423555
99133.82300509811
99133.86630808997
99133.90786351432
99133.94746953626
99133.98497700831
99134.0201535057
99133.19528763092
99133.19910318864
99133.20693656176
99133.21875773557
99133.23450793647
99133.254102773
99133.2774260201
99133.30432293478
99133.33459153924
99133.36797329863
99133.40414349388
99133.44270259989
99133.48317972668
99133.52505061464
99133.56776035769
99133.61076068573
99133.6535332474
99133.69559358034
99133.73657157831
99133.7761619168
99133.81415631261
99133.85038485986
99133.8846019561
99133.10117523534
99133.10477492149
99133.11215140564
99133.12327168975
99133.138071202
99133.15645871164
99133.17831151091
99133.20347061599
99133.2317349323
99133.26285511929
99133.29652801133
99133.33239501594
99133.37004808732
99133.40903832929
99133.44889693279
99133.48915848303
99133.52937954306
99133.56915348634
99133.60810676561
99133.64597024128
99133.68252607054
99133.71758904408
99133.75090834484
99133.00269555402
99133.00610331466
99133.01307541598
99133.02357745748
99133.03754194985
99133.05487465599
99133.07545103367
99133.09911292933
99133.12566446915
99133.15486865891
99133.18644520918
99133.22007168678
99133.25538721801
99133.29200085139
99133.32950745568
99133.36750225152
99133.4055971437
99133.44343172491
99133.48067319171
99133.51704968842
99133.5523464158
99133.58637273949
99133.61887680291
99132.90011935866
99132.9033613085
99132.90998530384
99132.91995661905
99132.93320678794
99132.94964116444
99132.96913633634
99132.99153694623
99133.01665456724
99133.04426577657
99133.0741116008
99133.10589866283
99133.13930284373
99133.17397784231
99133.20956545943
99133.24570670901
99133.28205449531
99133.31828249348
99133.35408772503
99133.38920765567
99133.42342785788
99133.45655609165
99133.48834234788
99132.79367652429
99132.79678001792
99132.80311413035
99132.81264447811
99132.82530286646
99132.84099585155
99132.85960174417
99132.8809693378
99132.90491866715
99132.93123905225
99132.95968911462
99132.9899983431
99133.02187171887
99133.05499635907
99133.089048807
99133.12370422934
99133.15864603198
99133.19357328888
99133.22820482438
99133.26229054562
99133.29561706909
99133.32799208874
99133.35916861905
99132.68355613896
99132.68654912447
99132.6926523758
99132.7018322761
99132.71402143245
99132.72912765734
99132.74703131136
99132.76758668054
99132.79062103789
99132.81593409674
99132.84329834521
99132.87246108548
99132.90314946191
99132.93507488299
99132.96793928536
99133.00144267349
99133.03529086086
99133.06920200896
99133.10291110972
99133.13617836518
99133.16879296475
99133.20056340942
99133.23124566856
99132.56990701084
99132.57281751125
99132.57874915819
99132.5876689229
99132.59950992034
99132.61418114581
99132.63156601494
99132.65152273345
99132.67388434644
99132.69845840307
99132.72502747511
99132.75335240533
99132.78317580977
99132.81422607992
99132.84622294444
99132.87888379589
99132.91193025939
99132.94509408274
99132.97812169262
99133.01078045422
99133.0428632668
99133.07417956015
99133.10448804134
99132.45283793316
99132.45569337228
99132.46151252142
99132.47026167333
99132.48187449547
99132.49626085618
99132.51330643933
99132.53287213403
99132.5547947592
99132.57888691782
99132.60493799734
99132.63271754065
99132.66197792845
99132.69245830851
99132.72388966683
99132.75600044509
99132.78852239347
99132.82119611744
99132.85377577669
99132.88603138055
99132.91776114261
99132.94877494838
99132.9788335389
99132.33242729523
99132.33525634168
99132.34102218652
99132.34968928777
99132.36119209061
99132.37544129029
99132.39232339643
99132.41170069546
99132.43341165638
99132.45727108877
99132.4830718422
99132.51058732558
99132.53957452172
99132.56977768971
99132.60093318875
99132.63277479455
99132.6650392595
99132.69747171117
99132.72983064737
99132.76188621156
99132.79344079441
99132.82430430445
99132.85423900979
99139.40009117921
99139.34536320159
99139.31864601285
99139.28432533554
99139.33228906881
99139.2749040355
99139.22683879193
99139.183654288
99139.16674196675
99139.12218358589
99139.08134012317
99139.04398372096
99138.98544974448
99138.95212478499
99138.91989925402
99138.88899345035
99138.80211149364
99138.77591733784
99138.74986917143
99138.72429577641
99138.61837737898
99138.59717057539
99138.57581047829
99138.55457559509
99138.43514691993
99138.41771076598
99138.40002378219
99138.38230207995
99138.25277916607
99138.23830228616
99138.22355818348
99138.2087132554
99138.0712992545
99138.0592217427
99138.04689864148
99138.03445753048
99137.89058207255
99137.88051770828
99137.87024622364
99137.85986424619
99137.71043601671
99137.70212391425
99137.69364885612
99137.6850820762
99137.5306457687
99137.52392044416
99137.5170755232
99137.51016072492
99137.35099605941
99137.345769024
99137.34046075538
99137.33510201551
99137.17128459252
99137.16753632491
99137.16373544018
99137.15989578616
99136.99134122876
99136.98911844646
99136.98685382114
99136.98454995225
99136.81108092648
99136.81047654833
99136.80981645247
99136.80909826433
99136.63052641744
99136.63166397566
99136.63270184009
99136.63364119219
99136.44982884439
99136.45285679889
99136.45570376176
99136.4583876598
99136.26934006513
99136.27439566364
99136.27915001854
99136.28365325788
99136.08964170232
99136.09680282378
99136.10351177464
99136.10986567911
99135.91151311558
99135.92075169172
99135.9293765195
99135.93754088388
99135.735829624
99135.74698535439
99135.75738246381
99135.76723039315
99135.56340360579
99135.57619437815
99135.5881239258
99135.59944744084
99135.39482135153
99135.408894712
99135.42205781367
99135.4345953313
99135.23036600971
99135.24536496526
99135.25945254978
99135.27292634315
99135.07005999076
99135.08566710823
99135.10039557931
99135.11454268378
99134.91375512634
99134.92970837098
99134.94483627653
99134.95942593037
99134.76120788796
99134.77730084273
99134.7926322053
99134.80747241068
99134.61212827539
99134.62820449335
99134.64358659153
99134.65852445601
99134.466211226
99134.48215713621
99134.4974755397
99134.51239421671
99134.32315611512
99134.33889354608
99134.35406678908
99134.36888123832
99134.18267942168
99134.1981587772
99134.21313232525
99134.22778438391
99134.04452037516
99134.05971577046
99134.07445773738
99134.08891133178
99133.90844461865
99133.92334843113
99133.93784511149
99133.95208240961
99133.77424573131
99133.78886453451
99133.80311648748
99133.81713421017
99133.64174500961
99133.65609643784
99133.67011539417
99133.68392163153
99133.51079034747
99133.52490046603
99133.53870689195
99133.55231865121
99133.3812550163
99133.39515626406
99133.40877725903
99133.42221833095
99133.25303607581
99133.26676560714
99133.2802332821
99133.29353261764
99133.12605306815
99133.13965146313
99133.15300158923
99133.16619191661
99133.0002473178
99133.01375756873
99133.02702853012
99133.04014516425
99132.87557804561
99132.8890446999
99132.90227659084
99132.91535601225
99139.21190772015
99139.16442876299
99139.12140595686
99139.08209437915
99139.04750724869
99139.01684792312
99138.98941221158
99138.96480756803
99138.94278295989
99138.92316068472
99138.90580717158
99138.89061660833
99138.8775023023
99138.86639215633
99138.85722634394
99138.84995602706
99138.84454267795
99138.84095777896
99138.8391789126
99139.1158851069
99139.04915554199
99138.99886552733
99138.95608255012
99138.91914137339
99138.88697365961
99138.85865837138
99138.83359335978
99138.81137699826
99138.79172988125
99138.7744501391
99138.75938626213
99138.74642106058
99138.73546220546
99138.72643640467
99138.71928589468
99138.71396630103
99138.71044538447
99138.70869858985
99138.98575171406
99138.92015062443
99138.86804721478
99138.82411276393
99138.78638810478
99138.75369756277
99138.72511133371
99138.69997474828
99138.67782768946
99138.65834045387
99138.64127144169
99138.62643947692
99138.61370619231
99138.60296438307
99138.59413046949
99138.58713968126
99138.58194296964
99138.57850509761
99138.57679983434
99138.83934759027
99138.7792615162
99138.72905036517
99138.68615071903
99138.64906964735
99138.61681676467
99138.58860569699
99138.56383856315
99138.54206910731
99138.52296318124
99138.50626831168
99138.49179204869
99138.47938618078
99138.46893568161
99138.46035112976
99138.45356357533
99138.44852109351
99138.44518656813
99138.44353275206
99138.68242274191
99138.62936995245
99138.58315017115
99138.54277040073
99138.50740776047
99138.47639402602
99138.44914385803
99138.42517273709
99138.40409348453
99138.38560055156
99138.36945434168
99138.35546714035
99138.34349165198
99138.33341223543
99138.32513843165
99138.31860030429
99138.31374515544
99138.31053533468
99138.30894338744
99138.51937537844
99138.47329438444
99138.43182723729
99138.39478574081
99138.36185884369
99138.33268145852
99138.30686871347
99138.28406512055
99138.26396281378
99138.24630420517
99138.23087811276
99138.21751340856
99138.20607244759
99138.1964452526
99138.18854476348
99138.18230314835
99138.17766904844
99138.17460566806
99138.17308620131
99138.35268338371
99138.31298927603
99138.27637779893
99138.2430374526
99138.21296849311
99138.18603265057
99138.16201410025
99138.14067728881
99138.12179657879
99138.10516952886
99138.09062139026
99138.07800496247
99138.06719834325
99138.05810199925
99138.05063588399
99138.04473692752
99138.04035700283
99138.03746145011
99138.0360249222
99138.1837708822
99138.14978319565
99138.11784437545
99138.08829052973
99138.06128544717
99138.03683921677
99138.01486223098
99137.99521812024
99137.9777555388
99137.96232609045
99137.94879362083
99137.93703822336
99137.92695723932
99137.91846471948
99137.91149022753
99137.90597750817
99137.90188319035
99137.89917582399
99137.8978322184
99138.01348685975
99137.98457706718
99137.95702265519
99137.93119059285
99137.90731458004