/*--------------------------------*- C++ -*----------------------------------*\
| =========                 |                                                 |
| \\      /  F ield         | OpenFOAM: The Open Source CFD Toolbox           |
|  \\    /   O peration     | Version:  2206                                  |
|   \\  /    A nd           | Website:  www.openfoam.com                      |
|    \\/     M anipulation  |                                                 |
\*---------------------------------------------------------------------------*/
FoamFile
{
    version     2.0;
    format      ascii;
    arch        "LSB;label=32;scalar=64";
    class       volScalarField;
    location    "0.05";
    object      p_rgh;
}
// * * * * * * * * * * * * * * * * * * * * * * * * * * * * * * * * * * * * * //

dimensions      [1 -1 -2 0 0 0 0];

internalField   nonuniform List<scalar> 
2268
(
100490.939455155
100482.1656171002
100463.7843001285
100435.5537300727
100397.0685299567
100347.7230367231
100286.6821918049
100212.8245016523
100124.6636601933
100020.1780886894
99897.28388430939
99752.13804119953
99555.39914843111
99313.16659618086
99160.93174470434
99141.76788949361
99141.35481084009
99141.27262310706
99141.08091903248
99140.9182932729
99140.80707809101
99140.7369937764
99140.70514343531
100492.3347509416
100483.5701888799
100465.2044524823
100436.9992470403
100398.5452171674
100349.2297217034
100288.2029873247
100214.3100958355
100125.9893531081
100020.9754235497
99897.04569977825
99748.78748753379
99537.2746432546
99276.28511153253
99149.45557263291
99141.48987576323
99141.33257305098
99141.22861543256
99141.052660899
99140.90208592438
99140.79465413906
99140.72581123115
99140.69435672891
100495.2843860794
100486.5428452764
100468.2224799389
100440.0893039834
100401.729505259
100352.5223780083
100291.5997970544
100217.7630188181
100129.3501678374
100023.7739548515
99898.69805338165
99745.62673268853
99516.68889244301
99215.29705574216
99141.2476403724
99141.3035278652
99141.28766035612
99141.16348638992
99141.00728018198
99140.87141725855
99140.76940996626
99140.70240729637
99140.67127926424
100499.7911860815
100491.0852353662
100472.8394948707
100444.8247265797
100406.6231279015
100357.6064754399
100296.8885197028
100223.226309887
100134.8585930034
100028.8818132339
99902.90662473335
99744.48032266014
99504.6892376593
99200.20470201265
99141.27218115685
99141.21493013429
99141.2069877701
99141.08942609958
99140.95183588125
99140.82884970043
99140.73279242721
99140.66734526491
99140.63586907841
100505.8622220293
100497.2045346947
100479.0643447859
100451.2173922956
100413.2436156462
100364.5103700685
100304.118938569
100230.794244536
100142.7047453116
100036.7167158096
99910.57703947627
99748.3078050654
99491.42089998306
99190.51677459253
99141.26254621704
99141.15801262829
99141.1236976568
99141.01232499504
99140.88915456942
99140.77758684641
99140.68639411779
99140.62145673131
99140.58796988649
100513.5193090571
100504.9246553717
100486.9248879509
100459.3010367369
100421.6339329836
100373.2921958318
100313.375251077
100240.5980170668
100153.1065123361
100047.6782462465
99922.44860826813
99758.69787361922
99486.64745769589
99180.89634951836
99141.25156826338
99141.10669110231
99141.04073392488
99140.93324345263
99140.82237577907
99140.71942613891
99140.63191382025
99140.56559841125
99140.52679986261
100522.6773685489
100514.1619480099
100496.3373658575
100468.9896309386
100431.7039849476
100383.856532972
100324.5567167732
100252.5341810648
100165.9615781469
100061.6922774842
99938.50789372972
99775.84165190796
99487.32475558764
99171.38141836449
99141.23703194586
99141.04908169237
99140.95643539807
99140.85341606078
99140.75184774492
99140.65631918106
99140.57105060377
99140.50077019923
99140.45041572636
100532.8785868544
100524.4363026132
100506.7898600814
100479.7271456408
100442.839343569
100395.5132736095
100336.8765654798
100265.6935781992
100180.2043467824
100077.490813989
99956.95492395168
99797.8224771291
99494.39621315621
99163.1866189292
99141.20690314796
99140.97720369235
99140.86836222978
99140.77117404413
99140.67887480745
99140.58984572289
99140.50573232819
99140.42837834047
99140.35460620985
99139.64267012084
99139.63409761868
99139.61803278982
99139.59705698187
99139.57364969292
99139.54959676402
99139.52602333218
99139.50361350061
99139.48276382707
99139.46369539804
99139.44652325039
99139.43129861716
99139.41803516641
99139.4067254398
99139.39735141447
99139.38989130365
99139.38432392827
99139.3806314415
99139.37879807572
99139.64396041837
99139.63525547077
99139.61884119759
99139.59748844596
99139.57378825085
99139.54953660566
99139.52583990178
99139.50335673634
99139.48246540265
99139.46337503142
99139.4461929393
99139.43096547625
99139.41770320259
99139.40639666663
99139.39702656781
99139.38957030021
99139.38400617913
99139.38031621053
99139.37848474503
99139.64663670186
99139.63765979739
99139.62048754236
99139.59834399117
99139.57404703052
99139.54939873991
99139.52545632572
99139.50282728905
99139.48185349145
99139.46272006549
99139.44551886168
99139.43028645439
99139.41702717351
99139.40572757469
99139.39636579684
99139.38891759233
99139.38336023969
99139.3796751364
99139.37784580079
99139.65071660071
99139.64138566256
99139.62297464241
99139.59958800417
99139.57438866694
99139.54915416869
99139.52485180552
99139.50201046432
99139.48091758645
99139.46172271982
99139.44449502976
99139.42925676005
99139.41600308983
99139.40471471786
99139.39536602559
99139.38793035271
99139.38238344088
99139.37870572851
99139.37687998429
99139.65619796042
99139.64654469847
99139.62628449526
99139.60115295299
99139.57475220376
99139.54875951853
99139.52399780718
99139.50088826312
99139.47964665458
99139.4603763005
99139.44311752687
99139.42787424992
99139.41462993593
99139.4033578002
99139.39402741782
99139.38660903626
99139.38107642
99139.37740876715
99139.37558806065
99139.66270113093
99139.65330763727
99139.63036758929
99139.60293132957
99139.57505310493
99139.5481570578
99139.52285714765
99139.49943756136
99139.47802632971
99139.45867213391
99139.44138131173
99139.42613616875
99139.41290640918
99139.40165644897
99139.39235019723
99139.38495424745
99139.37944002158
99139.3757852499
99139.37397105298
99139.66939497157
99139.66194140627
99139.63510419708
99139.60475420956
99139.57518026508
99139.54727504795
99139.52138491465
99139.49763045587
99139.47603946793
99139.45660000904
99139.43928048814
99139.42403931184
99139.41083101943
99139.39961027444
99139.39033468143
99139.38296675577
99139.37747529864
99139.3738363982
99139.37203024968
99139.68106886037
99139.67279228666
99139.6402715474
99139.60638759274
99139.57499723948
99139.54602950813
99139.51952971864
99139.49543548847
99139.47366720586
99139.45414867743
99139.43680847951
99139.42158008645
99139.40840209047
99139.39721883682
99139.38798123054
99139.38064743654
99139.3751834522
99139.37156361113
99139.36976711506
100551.0903743052
100542.7752263111
100525.4549404578
100498.9142367778
100462.7627577493
100416.4171852591
100359.0565844947
100289.541002789
100206.2976207041
100106.9772665028
99990.64749284417
99840.49922556226
99520.72883577042
99157.37808316812
99141.08496907882
99140.82934783313
99140.72049876091
99140.6394380993
99140.56207115216
99140.48302460155
99140.4000417738
99140.30653950495
99140.15393728075
100584.1205649564
100576.1173063597
100559.4945517892
100534.0612700843
100499.478860922
100455.2521236424
100400.7030303818
100334.9276014223
100256.7557557888
100164.5204753285
100058.4205740351
99923.4647723441
99532.24776637394
99146.60039682419
99140.51094998188
99140.5187465301
99140.49048841678
99140.45327594179
99140.40311138504
99140.3415094138
99140.26899173178
99140.18403353682
99140.08088709395
100624.0652763725
100616.4375509985
100600.6516758246
100576.551574843
100543.8628226762
100502.1961170138
100451.0394266348
100389.7482142506
100317.5615845089
100233.4380929436
100138.6433351574
100019.2130520927
99539.57698468558
99141.22759024397
99140.08385993175
99140.23589179445
99140.27818490422
99140.27944076183
99140.25403384744
99140.21059933807
99140.15382779259
99140.08622547681
99140.00924549438
100670.723172012
100663.535158427
100648.7145829038
100626.144541438
100595.6202341632
100556.8624044152
100509.5236795957
100453.2015004306
100387.4870485514
100311.8295025816
100228.2014674565
100123.3132060286
99538.94549452102
99139.67374068547
99139.92354732296
99140.06124647455
99140.11791998806
99140.13404219464
99140.12314331604
99140.09340935598
99140.05010844993
99139.9964207067
99139.93435464305
100723.8108272525
100717.1132524442
100703.3554322655
100682.4591936723
100654.2870670842
100618.6618321991
100575.3813971026
100524.2433697559
100465.10641742
100397.7567360962
100324.5377295753
100232.6807789229
99531.24691011751
99139.8625721697
99139.89867563301
99139.96553333772
99140.0032706135
99140.01722649799
99140.01126368437
99139.98961067057
99139.95595985983
99139.91307781824
99139.86314448764
100782.9786247065
100776.8074496262
100764.1770265674
100745.0442857514
100719.3314842423
100686.9481898367
100647.8096048731
100601.8642316799
100549.1542324487
100489.6720732273
100425.8832759131
100345.505649714
99518.84541220647
99139.8980565925
99139.87032047907
99139.89560593532
99139.91397731157
99139.92077849257
99139.91484261565
99139.89731463767
99139.87023536388
99139.835559165
99139.79512594359
100847.8232524364
100842.1997986056
100830.7302099615
100813.4010918548
100790.1841370295
100761.0577305296
100726.0250869241
100685.1397579966
100638.5583377017
100586.3865501371
100531.0578294038
100460.8591218746
99503.09548963774
99139.87238199142
99139.82641911886
99139.83137150567
99139.83675038257
99139.83701320588
99139.8295284295
99139.81403672849
99139.79139689123
99139.76281717081
99139.72963137641
100917.9019017884
100912.8341784956
100902.5315796219
100887.0043673924
100866.2628601457
100840.3368391495
100809.291386038
100773.2477090725
100732.4260660014
100686.9857462895
100639.2389264814
100578.1563153702
99484.82890664329
99139.82105326909
99139.77169224266
99139.76728019593
99139.76507312396
99139.76071634532
99139.75173578468
99139.73737232653
99139.71786038431
99139.69387285883
99139.66629903585
100992.7464137225
100988.2311188184
100979.0793389194
100965.3192819745
100946.9900237086
100924.1577889439
100896.9285544009
100865.4634168401
100830.0119121264
100790.751145219
100749.8220811286
100696.9875111962
99464.74036282812
99139.75730170906
99139.71018824361
99139.70204026318
99139.69587860316
99139.68878202245
99139.67885303638
99139.66534957496
99139.64823197084
99139.62784410446
99139.60474295012
101071.8762731399
101067.9009903749
101059.86653706
101047.8141960614
101031.8036808493
101011.9260278533
100988.3128140761
100961.1462327154
100930.683837687
100897.1008531777
100862.3407126706
100817.050810256
99443.4753124673
99139.68719157885
99139.64485552367
99139.63582258277
99139.62789488804
99139.61939557575
99139.60910797035
99139.59647109406
99139.58136581103
99139.5639525649
99139.54455526234
101154.8090430963
101151.3543100255
101144.3907729015
101133.9689838798
101120.1631896689
101103.0810598093
101082.8698682247
101059.7219053698
101033.8918820968
101005.5445608961
100976.4145567238
100938.1119248524
99421.57951333378
99139.61372920654
99139.5780214713
99139.56926137979
99139.5606186732
99139.55152811937
99139.54131634661
99139.52962570831
99139.51634554694
99139.50153124939
99139.48534107735
101241.0667483258
101238.1077490107
101232.1592416931
101223.2782647071
101211.5493834336
101197.0918499268
101180.0634129786
101160.6620319677
101139.1374429284
101115.6447072095
101091.7107027999
101059.9835486079
99399.60887293451
99139.5403749963
99139.51107804196
99139.50286313788
99139.49386416659
99139.48454942463
99139.47463752954
99139.46395870256
99139.45242572241
99139.44000740261
99139.42673121275
101330.1920495513
101327.6999143903
101322.7036286808
101315.2647988906
101305.4755818203
101293.4642518321
101279.3975901166
101263.4799685169
101245.961045383
101226.995039654
101207.9149037328
101182.4948472135
99377.59037134468
99139.46874092989
99139.44519818325
99139.43715235616
99139.42755085058
99139.41796230977
99139.40837208055
99139.39874184298
99139.38896185106
99139.37887734488
99139.36838705851
101421.7908235498
101419.734048235
101415.6228134913
101409.5216771058
101401.5285124917
101391.7797607021
101380.4529950425
101367.7646066822
101353.975272196
101339.2510450972
101324.7488011989
101305.5105036565
99356.41764234324
99139.40103845373
99139.38161213997
99139.37254455792
99139.36143665694
99139.35116575568
99139.34178712933
99139.33325894333
99139.32536045637
99139.3176838717
99139.30999804701
101515.5019668186
101513.847893398
101510.551922751
101505.6792534961
101499.3307542184
101491.6499280074
101482.828872299
101473.108899578
101462.7890702697
101452.0728170264
101441.9451831144
101428.9098968274
99337.68207783738
99139.3396316695
99139.32185491538
99139.30913856615
99139.29481358021
99139.28323956775
99139.27395923063
99139.26668518998
99139.26104085073
99139.25599559973
99139.25128962142
101610.3131319711
101609.0247757934
101606.4644125896
101602.6938582115
101597.8113961608
101591.961599333
101585.3488860932
101578.2531218924
101571.0667201228
101564.135818197
101558.4289434491
101552.3463017181
99322.21697252947
99139.28812334154
99139.26735576877
99139.24617768895
99139.22604667752
99139.21261950429
99139.20360669904
99139.19824665235
99139.19521824253
99139.19340279564
99139.19207697967
101704.619424502
101703.6551819307
101701.7463522449
101698.9475692736
101695.3456188458
101691.0713918187
101686.3177244387
101681.373949649
101676.7202244671
101672.941081492
101671.5672573182
101674.3918320709
99318.78302598141
99139.26441242432
99139.22073580268
99139.18079446527
99139.15195008249
99139.13632313661
99139.12886913583
99139.12673075037
99139.12753272608
99139.12971967833
99139.13231488239
101804.0078428099
101803.3681267786
101802.1115484741
101800.2869597499
101797.9601413164
101795.2299214802
101792.2373248049
101789.1888018213
101786.4497402325
101784.5127450671
101785.1532905551
101791.2602788333
99492.95477172192
99139.33770703949
99139.17525553121
99139.1032897229
99139.06554222383
99139.05057605582
99139.04779161753
99139.05130404745
99139.0576366232
99139.06491645642
99139.07210915764
101823.1106498758
101821.3502698865
101818.0591555471
101813.1193210023
101806.4721235933
101798.0316336767
101787.6330627513
101774.9453757766
101759.0598765293
101731.1876975646
101664.9977984276
101392.8849099575
99698.79546513419
99139.56505878907
99139.0810524954
99138.99109946884
99138.95475485409
99138.95037901035
99138.95875916543
99138.97170638171
99138.98573515101
99138.99934548096
99139.01182830472
99950.64057663619
99945.7876506102
99936.88591266624
99923.70132168043
99906.26753805876
99884.61583997113
99858.64986785056
99827.98375727494
99790.75603321441
99728.51818085992
99602.09947744875
99324.42453561544
99367.84964159281
99194.24394166704
99138.94639966179
99138.8169160392
99138.80498341545
99138.83332846382
99138.86247359141
99138.88915178353
99138.91292854535
99138.93389199763
99138.95216338035
99136.93790737381
99136.94683479505
99136.95843894496
99136.97581988368
99136.99861712442
99137.02643361488
99137.05842191324
99137.09245095134
99137.12302408162
99137.13586886681
99137.0896286119
99136.90724839394
99136.51400384492
99142.86021030681
99138.20833482119
99138.49178822686
99138.62560746321
99138.70867521926
99138.76459771466
99138.80705342155
99138.84136677803
99138.86997752548
99138.89409824921
99136.97284646754
99136.97851415322
99136.9893534177
99137.00571986666
99137.02761324155
99137.05492662154
99137.08734034518
99137.12395721486
99137.16348123847
99137.20412271489
99137.22657802822
99137.19225399128
99137.16058478622
99137.44029651924
99137.9629503732
99138.2893419496
99138.48146717326
99138.59780000511
99138.67434526474
99138.73020674403
99138.77381815287
99138.80931723992
99138.83876489497
99137.08420859059
99137.08981011965
99137.101252459
99137.11856999647
99137.14183345925
99137.17110568893
99137.20640051745
99137.24765883706
99137.29524846081
99137.3486624512
99137.39792645859
99137.4393056237
99137.54160539083
99137.76565947167
99138.04678228313
99138.25408676898
99138.40734962981
99138.51876478274
99138.60062818546
99138.66319537551
99138.71286116733
99138.75348986761
99138.78720822875
99137.18508258376
99137.19067652749
99137.20234698945
99137.2201128344
99137.2440911358
99137.2744502483
99137.31140381681
99137.35528044743
99137.40668497728
99137.46527827244
99137.52840781446
99137.6040357044
99137.72138485512
99137.8914803278
99138.08979072877
99138.24406377855
99138.36652498544
99138.46478742801
99138.54354057368
99138.6072976166
99138.65969405363
99138.70342496343
99138.74013535521
99137.27816403199
99137.28376844001
99137.29551616093
99137.31344959878
99137.33771117286
99137.36851471796
99137.40616005319
99137.45109679109
99137.50391750646
99137.56486289918
99137.63468861635
99137.71989322492
99137.82997123458
99137.96415316589
99138.10633044367
99138.23081600301
99138.33585912129
99138.42427486606
99138.49853617405
99138.5610762671
99138.61406634157
99138.65927602246
99138.69781734298
99137.36346654648
99137.36902705239
99137.38068034287
99137.3984795866
99137.42256352976
99137.45313753351
99137.49048657983
99137.53500310396
99137.5871553558
99137.64741014173
99137.71701637072
99137.79922947331
99137.8964535686
99138.00575406666
99138.11747110607
99138.22092614969
99138.31263409088
99138.39282239492
99138.46244406405
99138.52278059114
99138.57515649927
99138.62072643873
99138.66018753794
99137.44114148556
99137.44659136659
99137.45799025838
99137.47538760009
99137.49889840648
99137.52868867434
99137.56498117466
99137.60806025534
99137.65825511061
99137.71597147224
99137.78200120486
99137.85746860612
99137.94230245394
99138.03376683698
99138.12651720736
99138.21483034715
99138.29566906758
99138.36849932247
99138.43344608288
99138.4910676455
99138.54210863916
99138.5872862972
99138.62699128708
99137.51144309195
99137.51672297892
99137.52773676274
99137.54452158599
99137.5671588601
99137.59576205787
99137.63047510023
99137.67146684315
99137.71892045157
99137.77304849823
99137.83412796598
99137.90224916523
99137.97661539463
99138.05507586643
99138.13441706252
99138.21127544224
99138.2833299811
99138.34970463182
99138.410160342
99138.46484725646
99138.51413304139
99138.55842346101
99138.59788566953
99137.5747067201
99137.57977173816
99137.59030631433
99137.60633207741
99137.62789492621
99137.65505503424
99137.68788051297
99137.72643757553
99137.77077712461
99137.82091699175
99137.87679010366
99137.93806000413
99138.00380569111
99138.07239739943
99138.14173244701
99138.20968996301
99138.27447062641
99138.33518879575
99138.39146279039
99138.44319710715
99138.4905165651
99138.53361229248
99138.57249515246
99137.63132100091
99137.63614222304
99137.64614007159
99137.6613208442
99137.68169812861
99137.70728517263
99137.73808594252
99137.77408445891
99137.8152258519
99137.86138720732
99137.91232130866
99137.9675443038
99138.0262001911
99138.08704214726
99138.14860006237
99138.20941245805
99138.26814925212
99138.32397925464
99138.37644804255
99138.42533835655
99138.47062615371
99138.51235906417
99138.55044285272
99137.68170109145
99137.68626437076
99137.69570036857
99137.71000214986
99137.7291566151
99137.75313914452
99137.7819042082
99137.81537488417
99137.85342386334
99137.89584517636
99137.94231292819
99137.9923191078
99138.04511795407
99138.09973571783
99138.15508689763
99138.21008925949
99138.26370998776
99138.31534988189
99138.3644006562
99138.41062405983
99138.45391094346
99138.49421394913
99138.53136999407
99137.72626639056
99137.73056998863
99137.73944547684
99137.75287558687
99137.77082634774
99137.79324464836
99137.82005058577
99137.85112628626
99137.88630026529
99137.92532611512
99137.96785566439
99138.01340602808
99138.06133615179
99138.11087323926
99138.16117960021
99138.21143156392
99138.2609068099
99138.30877976387
99138.35475369057
99138.398519928
99138.43989832196
99138.47877600655
99138.51494559451
99137.76542336756
99137.76947532616
99137.77781184575
99137.79040798922
99137.8072148192
99137.82815997719
99137.85314070339
99137.88201476351
99137.91458807142
99137.95060019186
99137.98970950228
99138.03147374246
99138.07534219419
99138.12068792096
99138.16683932989
99138.21313394485
99138.25895799756
99138.30371953118
99138.34702308859
99138.38857911332
99138.4281858593
99138.4656941006
99138.50087126566
99137.79955348272
99137.80336913248
99137.81120274581
99137.8230242662
99137.83877489722
99137.85837024453
99137.88169409959
99137.9085917411
99137.93886120303
99137.972243945
99138.00841522314
99138.04697547315
99138.08745375303
99138.12932576223
99138.17203654522
99138.21503778438
99138.25781112166
99138.29987207265
99138.34085056854
99138.38044141857
99138.4184364502
99138.45466568953
99138.48888342631
99137.82900521724
99137.8326050365
99137.83998179404
99137.85110245593
99137.86590242189
99137.88429045552
99137.90614386006
99137.93130366944
99137.9595688015
99137.99068991515
99138.02436382831
99138.0602319157
99138.09788609295
99138.13687742024
99138.17673703318
99138.21699946657
99138.2572212596
99138.29699578838
99138.33594951796
99138.37381343647
99138.41036983456
99138.44543345604
99138.47875340845
99137.85408943356
99137.85749734956
99137.86446973085
99137.87497214366
99137.8889370799
99137.90627029601
99137.92684725799
99137.95050982694
99137.97706214052
99138.00626720671
99138.03784472423
99138.07147223657
99138.10678883876
99138.14340353271
99138.18091113037
99138.21890679916
99138.25700240672
99138.29483755371
99138.33207943894
99138.36845633418
99138.40375358367
99138.43778051059
99138.47028521182
99137.87507689762
99137.87831901372
99137.88494327012
99137.89491492586
99137.90816550134
99137.92460034879
99137.94409606514
99137.96649730566
99137.99161565435
99138.01922769065
99138.04907443491
99138.08086249458
99138.11426772088
99138.14894376515
99138.18453237563
99138.2206745038
99138.25702300925
99138.29325156623
99138.32905720701
99138.36417752117
99138.39839822576
99138.43152705471
99138.46331396831
99137.8921974986
99137.89530114915
99137.90163548509
99137.91116611882
99137.92382485517
99137.93951825397
99137.95812463657
99137.97949280927
99138.00344281558
99138.02976398103
99138.0582149251
99138.08852512337
99138.12039952855
99138.15352521438
99138.18757866739
99138.2222349863
99138.25717752501
99138.29210534792
99138.3267372999
99138.36082340754
99138.39415043042
99138.42652604157
99138.45770323781
99137.90564029172
99137.90863341496
99137.91473684032
99137.92391696601
99137.93610640528
99137.95121298161
99137.96911706877
99137.98967296441
99138.01270795296
99138.03802175404
99138.06538685504
99138.09455054739
99138.12523994847
99138.15716642491
99138.19003185147
99138.22353616006
99138.25738510552
99138.29129683494
99138.32500637033
99138.35827403193
99138.39088915006
99138.42266021462
99138.45334317675
99137.91555408649
99137.91846466853
99137.92439643249
99137.93331636275
99137.94515758549
99137.95982910982
99137.97721436576
99137.99717157282
99138.01953378685
99138.04410856414
99138.07067847712
99138.09900435779
99138.12882879759
99138.15988014158
99138.19187805129
99138.22453984205
99138.25758707673
99138.2907514891
99138.32377954845
99138.3564387431
99138.38852211022
99138.41983906903
99138.45014830798
99137.92204756594
99137.92490304587
99137.93072227181
99137.93947155464
99137.95108457212
99137.96547120802
99137.98251716101
99138.00208333369
99138.02400655576
99138.04809943735
99138.07415136688
99138.10193187522
99138.13119331478
99138.1616747816
99138.19310718939
99138.22521890204
99138.25774161312
99138.29041592528
99138.32299605731
99138.35525214863
99138.38698254342
99138.4179971049
99138.44805657605
99137.9251989661
99137.92802804745
99137.93379400729
99137.94246130147
99137.95396438184
99137.96821394988
99137.98509652013
99138.0044743828
99138.02618600847
99138.05004620562
99138.07584781671
99138.10336423542
99138.13235241837
99138.16255658653
99138.19371305437
99138.22555555745
99138.25782082863
99138.29025400987
99138.32261364296
99138.35466994738
99138.38622535738
99138.41708970608
99138.44702521988
99139.92664962214
99139.87192143164
99139.84520378453
99139.81088220091
99139.98242064737
99139.92503514144
99139.87696914458
99139.83378396202
99139.94044610769
99139.89588713359
99139.85504295591
99139.81768582936
99139.88272574812
99139.84940018981
99139.81717393552
99139.78626745698
99139.82295899891
99139.79676424502
99139.77071538051
99139.74514130119
99139.76279597152
99139.7415886055
99139.7202278464
99139.6989922807
99139.70313623409
99139.6856995674
99139.66801195158
99139.65028956835
99139.64433878698
99139.62986144364
99139.61511675022
99139.60027117275
99139.58642882777
99139.57435089409
99139.56202722622
99139.54958551016
99139.52928122821
99139.51921645727
99139.50894442192
99139.49856191194
99139.47270448085
99139.46439194966
99139.45591632272
99139.44734907226
99139.41648331431
99139.40975749218
99139.40291196424
99139.39599674105
99139.36040254982
99139.3551749225
99139.34986596573
99139.34450678316
99139.30425979974
99139.30051082491
99139.29670918491
99139.29286903905
99139.24788496045
99139.24566134019
99139.24339585759
99139.24109135946
99139.19119281194
99139.19058751545
99139.18992655702
99139.18920763122
99139.13420605136
99139.13534269188
99139.13637966767
99139.13731819637
99139.07707561136
99139.08010270334
99139.08294888127
99139.08563194568
99139.02015344483
99139.02520830698
99139.02996196186
99139.03446441075
99138.96402106334
99138.97118163349
99138.97789010136
99138.98424335668
99138.90945804567
99138.91869629004
99138.92732079791
99138.93548469183
99138.85733960524
99138.86849525965
99138.87889233179
99138.88874003716
99138.80847844004
99138.82126938041
99138.83319907896
99138.84452260575
99138.76346066836
99138.77753445428
99138.79069799802
99138.80323579317
99138.72256981306
99138.73756940207
99138.75165759111
99138.76513187104
99138.68582802394
99138.70143598386
99138.71616530594
99138.73031310822
99138.65308753564
99138.66904175583
99138.68417060914
99138.69876108276
99138.6241044757
99138.64019853335
99138.65553100625
99138.67037214433
99138.59858923515
99138.61466659651
99138.63004982109
99138.64498863467
99138.57623634565
99138.59218343886
99138.60750304085
99138.62242268541
99138.5567455284
99138.57248411021
99138.58765850984
99138.60247386926
99138.53983285044
99138.55531334321
99138.57028806393
99138.58494100196
99138.52523785099
99138.54043432315
99138.55517740692
99138.5696318056
99138.51272582116
99138.52763068375
99138.54212847886
99138.55636654774
99138.50209060515
99138.51671040987
99138.53096343776
99138.54498187773
99138.49315322987
99138.5075056489
99138.52152568653
99138.53533263414
99138.48576181551
99138.49987290322
99138.51368039976
99138.52729285497
99138.47978946942
99138.49369169507
99138.50731377964
99138.52075556025
99138.47513343807
99138.48886394346
99138.50233270643
99138.51563274693
99138.47171321888
99138.48531258841
99138.49866380332
99138.51185481522
99138.46947032618
99138.48298147674
99138.49625345151
99138.50937070542
99138.46836420539
99138.48183154203
99138.49506432808
99138.50814414049
99139.73846427044
99139.69098533405
99139.64796243147
99139.60865066113
99139.57406331826
99139.54340378598
99139.5159678749
99139.49136303952
99139.4693382532
99139.44971581554
99139.43236215667
99139.41717146449
99139.40405704666
99139.39294680592
99139.38378091597
99139.37651053863
99139.37109714512
99139.36751221535
99139.36573330396
99139.76601443723
99139.69928458176
99139.64899427211
99139.60621099059
99139.56926952211
99139.53710153842
99139.50878599228
99139.48372074022
99139.46150415864
99139.44185684256
99139.42457692254
99139.4095128888
99139.39654755165
99139.38558858192
99139.37656268757
99139.36941210477
99139.36409245795
99139.36057150428
99139.35882464446
99139.75945357306
99139.69385193672
99139.64174803224
99139.59781314917
99139.56008810698
99139.52739721643
99139.49881066933
99139.47367379496
99139.45152647478
99139.4320390042
99139.41496978301
99139.40013763476
99139.38740419193
99139.37666224941
99139.36782822733
99139.36083735502
99139.35564058169
99139.3522026678
99139.35049732157
99139.73662141574
99139.67653473502
99139.62632297131
99139.58342277909
99139.54634123261
99139.5140879339
99139.48587649383
99139.46110902545
99139.43933926889
99139.42023307391
99139.40353796614
99139.38906149485
99139.37665544791
99139.3662047984
99139.35762012457
99139.35083247592
99139.34578992595
99139.34245535267
99139.34080143852
99139.70326809268
99139.6502146516
99139.60399419522
99139.56361381539
99139.52825064033
99139.49723643484
99139.46998584669
99139.44601434925
99139.42493475937
99139.40644152586
99139.39029505081
99139.37630761843
99139.36433193205
99139.35425234976
99139.34597841192
99139.33944018144
99139.33458495702
99139.33137508514
99139.329783024
99139.66379189154
99139.61771021501
99139.57624235562
99139.53920020715
99139.50627273093
99139.47709483065
99139.45128162431
99139.42847761769
99139.40837494079
99139.39071600331
99139.37528962159
99139.36192466613
99139.35048349052
99139.34085611644
99139.33295548306
99139.32671375727
99139.32207957763
99139.31901614019
99139.31749654723
99139.62067071001
99139.58097589723
99139.54436368526
99139.51102265879
99139.48095308717
99139.45401669422
99139.42999764797
99139.40866039059
99139.38977928156
99139.37315187768
99139.35860342841
99139.34598673151
99139.33517988308
99139.32608334842
99139.31861708012
99139.31271800675
99139.30833799622
99139.30544238492
99139.30400571782
99139.57532867165
99139.54134026609
99139.50940070341
99139.47984616403
99139.45284044878
99139.42839364278
99139.40641613446
99139.38677155183
99139.3693085476
99139.35387872426
99139.34034592607
99139.32859024458
99139.31850901907
99139.310016299
99139.30304164707
99139.29752880592
99139.29343440045
99139.2907269701
99139.28938321765
99139.52861476618
99139.49970424248
99139.47214909151
99139.44631633346