/*--------------------------------*- C++ -*----------------------------------*\
| =========                 |                                                 |
| \\      /  F ield         | OpenFOAM: The Open Source CFD Toolbox           |
|  \\    /   O peration     | Version:  2206                                  |
|   \\  /    A nd           | Website:  www.openfoam.com                      |
|    \\/     M anipulation  |                                                 |
\*---------------------------------------------------------------------------*/
FoamFile
{
    version     2.0;
    format      ascii;
    arch        "LSB;label=32;scalar=64";
    class       surfaceScalarField;
    location    "0.05";
    object      phi;
}
// * * * * * * * * * * * * * * * * * * * * * * * * * * * * * * * * * * * * * //

dimensions      [0 3 -1 0 0 0 0];

oriented        oriented;

internalField   nonuniform List<scalar> 
4432
(
3.298270885234151e-06
-3.298268527645274e-06
6.647081489662721e-06
-3.348807593184271e-06
1.009428111933881e-05
-3.447197140375168e-06
1.369788752272677e-05
-3.603604570385925e-06
1.752740627764159e-05
-3.829516759532089e-06
2.167092370851484e-05
-4.143514211469086e-06
2.624626398044218e-05
-4.575335520736701e-06
3.141976495118084e-05
-5.173496166555445e-06
3.744227837836581e-05
-6.022511838531963e-06
4.469564763571119e-05
-7.253374157426932e-06
5.406255101377669e-05
-9.366914964098416e-06
6.604279662010142e-05
-1.197967680352666e-05
8.009783544267731e-05
-1.405469918138095e-05
9.577049802919171e-05
-1.567278103181412e-05
0.0001349722890834608
-3.516838719959387e-05
0.0001042583864816061
3.090771942556239e-05
8.331605929239322e-05
2.015183982317174e-05
5.869791442621077e-05
2.401430651869903e-05
4.061356886045969e-05
1.79315069906648e-05
2.836168318081475e-05
1.230093398689351e-05
1.857889437138469e-05
9.879054241786301e-06
9.408105753408501e-06
9.274219182667024e-06
9.512232630122623e-06
3.296667098119037e-06
-6.594933165916397e-06
6.642809796998833e-06
-6.694947387289136e-06
1.008618304242821e-05
-6.890568054424373e-06
1.368382486655846e-05
-7.201244615122313e-06
1.750385948615356e-05
-7.64954925203234e-06
2.163216791968429e-05
-8.271819188433983e-06
2.618268317371091e-05
-9.12584599984417e-06
3.131418472098213e-05
-1.030499349442031e-05
3.725948116819648e-05
-1.196780795966004e-05
4.43728029886847e-05
-1.436670221825993e-05
5.323298567419011e-05
-1.822710956616602e-05
6.474153586173535e-05
-2.348761871944448e-05
8.049720459192852e-05
-2.9809979684532e-05
9.88308694141855e-05
-3.391967871985281e-05
9.068922413585353e-05
-3.491396703981023e-05
8.850718170309906e-05
3.245305490685301e-05
6.828627251031763e-05
3.949330346541502e-05
5.176658014209131e-05
4.010595629952843e-05
3.872011258485609e-05
3.091317981052282e-05
2.812254102257946e-05
2.296779219700846e-05
1.880589870931683e-05
1.929494468553974e-05
9.647805384220923e-06
1.853605074227752e-05
1.92642379460013e-05
3.276090002494067e-06
-9.871020756068245e-06
6.599886508654235e-06
-1.001874117806162e-05
1.001812639704085e-05
-1.030880584136535e-05
1.358560504841047e-05
-1.076872165753622e-05
1.736735060806444e-05
-1.143129276300211e-05
2.144440017550768e-05
-1.234886537117464e-05
2.592245237977367e-05
-1.360389373449298e-05
3.094525733535899e-05
-1.53277950104568e-05
3.671585316697988e-05
-1.773840466001393e-05
4.353170754500915e-05
-2.118256386593801e-05
5.180026980494915e-05
-2.649568379861358e-05
6.236716067025552e-05
-3.405384594163991e-05
7.800542466233399e-05
-4.544779880181615e-05
0.000110168346280609
-6.283898598124284e-05
8.320252206531087e-05
-7.70951050504863e-06
7.518176353233672e-05
3.977883290246516e-05
5.802605563621502e-05
5.601150051077253e-05
4.602773506147588e-05
5.186173917562964e-05
3.614378468110441e-05
4.079992784615624e-05
2.715798106616299e-05
3.203706994490872e-05
1.862307311806147e-05
2.793130839490966e-05
9.789194461011935e-06
2.747393232780618e-05
2.915771862195826e-05
3.245078067078503e-06
-1.311609652624107e-05
6.535585637523703e-06
-1.330924624475377e-05
9.916251723108798e-06
-1.368947006527132e-05
1.343874468133148e-05
-1.429121322035753e-05
1.716362835662134e-05
-1.515617458351271e-05
2.116502776133332e-05
-1.63502616576204e-05
2.553718878527879e-05
-1.797605080280455e-05
3.040383309094389e-05
-2.019443674667966e-05
3.593075778153714e-05
-2.326533127028076e-05
4.234835689589159e-05
-2.760017090684234e-05
4.991850014216636e-05
-3.406583858024592e-05
5.931839030789056e-05
-4.345302908202133e-05
7.234334382349303e-05
-5.844177801574743e-05
8.664244511856359e-05
-7.350768780223137e-05
7.396378707707502e-05
4.404563768397485e-06
6.055434478144487e-05
5.239189685759931e-05
4.947594209324069e-05
6.663099059060351e-05
4.107069503038179e-05
6.015053524441509e-05
3.351809053259146e-05
4.839632770962218e-05
2.616420564303052e-05
3.948394700536328e-05
1.848197326092301e-05
3.571632292248506e-05
1.008707977165132e-05
3.597307029113099e-05
3.934916890116618e-05
3.20408815720174e-06
-1.632018254417551e-05
6.450764546936499e-06
-1.655592035793188e-05
9.782034038130727e-06
-1.702073793654843e-05
1.324561343855106e-05
-1.775479144543895e-05
1.689647112984433e-05
-1.880703066079779e-05
2.080021221397697e-05
-2.025399999261544e-05
2.503733851910921e-05
-2.221317378066896e-05
2.970838464256469e-05
-2.486548118550978e-05
3.493780700839866e-05
-2.84947564222894e-05
4.088681861909665e-05
-3.354919071345645e-05
4.766693815181129e-05
-4.084596900009259e-05
5.568894709084255e-05
-5.147429992312533e-05
6.576166660021318e-05
-6.847575334935989e-05
7.603958955360729e-05
-8.052210813747585e-05
6.200808029456023e-05
1.722388584620957e-05
5.004904346010388e-05
6.357824426342395e-05
4.236830480921023e-05
7.400779210511261e-05
3.670158186850387e-05
6.578388665078563e-05
3.131202837261512e-05
5.385675926522154e-05
2.525577658166168e-05
4.563833255918444e-05
1.852180668265029e-05
4.255396277596373e-05
1.066145047717907e-05
4.3937839593625e-05
5.011508544545124e-05
3.153337736215073e-06
-1.947351820121857e-05
6.345934695001984e-06
-1.974851518495794e-05
9.616444237714662e-06
-2.029124604418422e-05
1.300785957834878e-05
-2.114620579245356e-05
1.656860698976788e-05
-2.236777665891031e-05
2.035452316171576e-05
-2.403991374062077e-05
2.443078616834129e-05
-2.628943406337608e-05
2.887295077097292e-05
-2.930764501505211e-05
3.376276563979486e-05
-3.338457500940433e-05
3.919409780713886e-05
-3.898053146799245e-05
4.513255978797583e-05
-4.678444099742461e-05
5.179258120161722e-05
-5.813356395128313e-05
5.937661456138047e-05
-7.600611408679957e-05
6.817179328194768e-05
-8.679753521363475e-05
5.166758204396963e-05
3.242403241835396e-05
4.170252186027701e-05
7.293837028892711e-05
3.671799166323477e-05
7.882277292937712e-05
3.335416786392172e-05
6.917148520543675e-05
2.938305629343138e-05
5.791338888443488e-05
2.452937005487895e-05
5.059327175420734e-05
1.884014939584978e-05
4.834736591385142e-05
1.168410715984742e-05
5.119844744758921e-05
6.190375085513652e-05
3.09201800888099e-06
-2.256553428026265e-05
6.219659499747012e-06
-2.287615469988582e-05
9.417361257312557e-06
-2.348894643501973e-05
1.272261324941662e-05
-2.445145680465437e-05
1.617638526342033e-05
-2.582154735937134e-05
1.982363342730005e-05
-2.76871598603226e-05
2.371302708445823e-05
-3.01788257488217e-05
2.789444791379049e-05
-3.348906599336881e-05
3.240938661944336e-05
-3.789951802893234e-05
3.72856516339293e-05
-4.385680483520142e-05
4.234450653574944e-05
-5.184330510130618e-05
4.774757461098148e-05
-6.353585778596137e-05
5.373282974539887e-05
-8.191372122473293e-05
5.823978080483406e-05
-9.021576009156119e-05
4.290551417735818e-05
4.670332647621856e-05
3.521312251034211e-05
8.022898359743968e-05
3.250544292093958e-05
8.146448885633866e-05
3.058119492225647e-05
7.115309121777429e-05
2.771329335326531e-05
6.087558499361036e-05
2.399560996337275e-05
5.441385832532493e-05
1.950526297218689e-05
5.294221887102571e-05
1.321808785778567e-05
5.759031258165962e-05
7.522648913246346e-05
3.016304734969681e-06
-2.558183743303978e-05
6.063137302987178e-06
-2.592298580123816e-05
9.170776120983271e-06
-2.659658415832773e-05
1.237026535969118e-05
-2.765094514081425e-05
1.569425422838754e-05
-2.914553513796475e-05
1.917602902916716e-05
-3.116893331493271e-05
2.284741823261694e-05
-3.385021402569802e-05
2.673383983872364e-05
-3.73754883367098e-05
3.084560222654226e-05
-4.201128378587039e-05
3.516383556795896e-05
-4.817504369043906e-05
3.928970758688006e-05
-5.596918247711589e-05
4.34689369052864e-05
-6.771430543966806e-05
4.747153695333529e-05
-8.580401623243317e-05
4.68464907816019e-05
-9.058681620026835e-05
3.486558874874322e-05
5.799769152381986e-05
2.998527232522089e-05
8.486548971815263e-05
2.914835972194722e-05
8.229776933173692e-05
2.818244901131978e-05
7.219589679239846e-05
2.621919121403874e-05
6.293755661442593e-05
2.35768788380347e-05
5.715979803334041e-05
2.04514636662773e-05
5.617218851756813e-05
1.505356813432743e-05
6.309287582050702e-05
9.038470613778378e-05
2.271340093892047e-06
-2.154878563578501e-06
4.057121424067351e-06
-1.669293068767005e-06
5.175126823737137e-06
-1.001494721347564e-06
5.71203986901404e-06
-4.203720730730442e-07
5.840981844874348e-06
-1.237840749397552e-08
5.700167115531439e-06
2.573901623276717e-07
5.394554149147614e-06
4.221924844928965e-07
4.994944169386737e-06
5.161908161523289e-07
4.545246333337566e-06
5.662819392652066e-07
4.072782794704758e-06
5.89054532289124e-07
3.593692008752977e-06
5.956910209619101e-07
3.117052568233627e-06
5.93248785608314e-07
2.647569298524474e-06
5.86099893093544e-07
2.187193516975175e-06
5.769976251426695e-07
1.736129017807357e-06
5.676903565423831e-07
1.293466657368332e-06
5.59291912035632e-07
8.575988892364004e-07
5.525011769371065e-07
4.265650560274403e-07
5.476693221397429e-07
5.431927023277485e-07
2.385038438742376e-06
-4.42345612509173e-06
4.226251329981485e-06
-3.394022304754084e-06
5.350870435115137e-06
-2.009607265845663e-06
5.88075398219871e-06
-8.337183289041604e-07
5.983970792133366e-06
9.654677954915506e-10
5.81928595256418e-06
5.386486007551894e-07
5.494602000667884e-06
8.634555985901805e-07
5.079440886200618e-06
1.047934015603104e-06
4.616809998601622e-06
1.145499378912764e-06
4.133388381204842e-06
1.189070137248487e-06
3.64480473409429e-06
1.200877808581132e-06
3.159785061901837e-06
1.194880306041058e-06
2.682789048923905e-06
1.179714738191228e-06
2.215583845480497e-06
1.160826775153205e-06
1.758225423088203e-06
1.141676886615938e-06
1.30967804311282e-06
1.124471348665209e-06
8.682094879963388e-07
1.11060574282173e-06
4.31589468026815e-07
1.100926825164643e-06
1.091410842954248e-06
2.549266723494439e-06
-6.856269478558847e-06
4.457408442317186e-06
-5.185692813619337e-06
5.558759629769452e-06
-2.994463606887873e-06
6.031098587838399e-06
-1.189530257351213e-06
6.081673122864361e-06
6.694356948965965e-08
5.87823739003447e-06
8.586525750154969e-07
5.528226565414171e-06
1.330042976150121e-06
5.097192547957109e-06
1.595549819746732e-06
4.624805427418273e-06
1.734474307455698e-06
4.135626117648588e-06
1.794845301854191e-06
3.643788323706173e-06
1.809320608804955e-06
3.157081032008617e-06
1.79820107627593e-06
2.679389070889898e-06
1.774026983876663e-06
2.212120883838072e-06
1.744720430906993e-06
1.755104910354126e-06
1.715322752397825e-06
1.307157729022297e-06
1.689052679877492e-06
8.664481957890338e-07
1.667953562387142e-06
4.30723416087419e-07
1.653291048862277e-06
1.638764236864194e-06
2.809981880047668e-06
-9.549810405259688e-06
4.831706160031231e-06
-7.090964238192731e-06
5.887566087812496e-06
-3.933845222689622e-06
6.258497685833229e-06
-1.443949156799687e-06
6.225653469119101e-06
2.163294900727664e-07
5.963948414830853e-06
1.236918803199949e-06
5.576586338252136e-06
1.83397824669213e-06
5.122326402991015e-06
2.166391094581471e-06
4.635788340915847e-06
2.33760152188986e-06
4.138318909287727e-06
2.408912655548967e-06
3.641833693328664e-06
2.422412946584391e-06
3.152752260541234e-06
2.403897920662506e-06
2.67412234437395e-06
2.369279055157769e-06
2.20683001134815e-06
2.328640265889402e-06
1.750373147042182e-06
2.288411821155658e-06
1.303355367826173e-06
2.252707244252367e-06
8.638062129055445e-07
2.224143860180016e-06
4.293937145304885e-07
2.204345627730299e-06
2.184789803750654e-06
3.181837487231464e-06
-1.261522746123516e-05
5.370888945648959e-06
-9.163584309521822e-06
6.337504204012496e-06
-4.784002266958108e-06
6.559479159479456e-06
-1.549428799830091e-06
6.411294660601817e-06
4.810422370073346e-07
6.072777421016691e-06
1.691988235089866e-06
5.637495315307065e-06
2.385828668333238e-06
5.153146840048129e-06
2.767319237723691e-06
4.648743228237403e-06
2.958594602711806e-06
4.140879625268237e-06
3.03337545323577e-06
3.638570243747242e-06
3.041330960264968e-06
3.146553811545427e-06
3.012531336658348e-06
2.666819012940586e-06
2.965637725147177e-06
2.199589109521147e-06
2.912499713208648e-06
1.74394116916571e-06
2.860694427602696e-06
1.29820727864708e-06
2.815080757460743e-06
8.602384613560459e-07
2.778756893208062e-06
4.275849399619266e-07
2.753644155989235e-06
2.729008595437566e-06
3.70403684836032e-06
-1.620285702990908e-05
6.118538704649397e-06
-1.146168535741528e-05
6.917817384898187e-06
-5.466843288102502e-06
6.927296220452187e-06
-1.442430261964344e-06
6.631917616754716e-06
8.929361662512309e-07
6.199728237582122e-06
2.240722105121115e-06
5.707616990284472e-06
2.994505175683982e-06
5.187315992223675e-06
3.404200368703373e-06
4.662383821958947e-06
3.600118903142053e-06
4.142466377600881e-06
3.669895804438703e-06
3.633464702152496e-06
3.666945355706488e-06
3.138144135844382e-06
3.624473074615758e-06
2.657258590563685e-06
3.563151534549816e-06
2.190255151523334e-06
3.496137487510473e-06
1.73571661348587e-06
3.431872875725744e-06
1.291654894002329e-06
3.375787780348207e-06
8.557092886544767e-07
3.331352698325081e-06
4.252838957373693e-07
3.300720414796838e-06
3.270930336096842e-06
4.776655553112822e-06
-2.086313622450301e-05
7.2083979357413e-06
-1.377704310076933e-05
7.636329135183026e-06
-5.778366157732883e-06
7.351233034545018e-06
-1.040881341617008e-06
6.878356090175466e-06
1.482307805474767e-06
6.339709115598528e-06
2.895899152972791e-06
5.780512874330576e-06
3.670258484833148e-06
5.22308496628756e-06
4.078205324530697e-06
4.675241080679294e-06
4.264555296588357e-06
4.142118750216898e-06
4.319623375283854e-06
3.625901787153167e-06
4.299778420736061e-06
3.12713010044236e-06
4.239870035178563e-06
2.645189267778936e-06
4.161725400671698e-06
2.178666821771417e-06
4.079299755966405e-06
1.725596732918616e-06
4.001589082004579e-06
1.283634238702152e-06
3.934402441286771e-06
8.50181436937014e-07
3.881462962259695e-06
4.224767966780531e-07
3.845082575638063e-06
3.810054978726088e-06
8.758193125020423e-06
-2.950499231938246e-05
9.110821219172226e-06
-1.401330390321205e-05
8.544790713642848e-06
-5.095941159729821e-06
7.825321940688003e-06
-2.0498376880197e-07
7.138939933991951e-06
2.285157527308886e-06
6.482082828974752e-06
3.669258498334419e-06
5.855098015686247e-06
4.413774712710203e-06
5.257107207339728e-06
4.792750823318029e-06
4.685300217030301e-06
4.952935544202946e-06
4.138528245984722e-06
4.982983720567734e-06
3.615021797534694e-06
4.939885858240526e-06
3.112943720411783e-06
4.858559783278023e-06
2.630234163039487e-06
4.761055874826599e-06
2.164574039152368e-06
4.661588983404222e-06
1.713417276504108e-06
4.569382318911378e-06
1.274040642334124e-06
4.490422199706735e-06
8.43593245571117e-07
4.42855873609465e-06
4.191351935691366e-07
4.386190691743046e-06
4.345832675419623e-06
6.196014739750574e-06
-3.177785032345971e-05
1.244807822955626e-05
-3.217504763866178e-05
1.880547508422278e-05
-3.295397970274586e-05
2.532242875928468e-05
-3.416789760854533e-05
3.205142311264969e-05
-3.587452812949247e-05
3.904076758748662e-05
-3.815827649950925e-05
4.63281817384354e-05
-4.113762788180641e-05
5.392746244668665e-05
-4.497477088034717e-05
6.180362040924365e-05
-4.988744615914209e-05
6.978622634843366e-05
-5.615765540168644e-05
7.791532767334451e-05
-6.409828756382999e-05
8.489627284058102e-05
-7.469358850236992e-05
9.055865469191691e-05
-9.111217761344037e-05
8.179158043041673e-05
-9.215971334098974e-05
5.601545352172962e-05
8.369591852673482e-05
5.158503390567789e-05
8.926430424324012e-05
5.238392870711568e-05
8.163459054860754e-05
5.254339701058125e-05
7.223686354431851e-05
5.121170891970846e-05
6.448709510671843e-05
4.938085849412297e-05
5.921232430036717e-05
4.912254824721711e-05
5.665291534985409e-05
5.552429133357851e-05
5.69137133747346e-05
5.727588356920302e-05
8.885597993987247e-05
5.80627788444501e-06
-3.758412668205769e-05
1.165164979447719e-05
-3.802041817681241e-05
1.756621059808276e-05
-3.886853941505521e-05
2.35809352542994e-05
-4.018262131701129e-05
2.972083309291905e-05
-4.201442508012914e-05
3.59997653229568e-05
-4.443720822489195e-05
4.241187428346661e-05
-4.754973750370027e-05
4.891722192701208e-05
-5.148012111964092e-05
5.541835529625358e-05
-5.638858420871736e-05
6.172451129797193e-05
-6.246381691240387e-05
6.752961999650006e-05
-6.990339944706022e-05
7.215470917572522e-05
-7.931702118553512e-05
7.597552953700565e-05
-9.431259366344532e-05
1.671006576870452e-05
-8.06804869563189e-05
3.047218263485308e-05
6.878058113843748e-05
3.752840029585257e-05
8.21688563578326e-05
4.248405172267446e-05
7.684443114004612e-05
4.513411164838403e-05
6.979741544482047e-05
4.629964913375526e-05
6.354191958955624e-05
4.726402983214309e-05
5.847019714324244e-05
4.975933142736329e-05
5.438022083230569e-05
5.606461487350935e-05
5.083111958420962e-05
4.656809582729971e-05
6.69950423655904e-05
5.38259928541772e-06
-4.296672445768991e-05
1.078769310110931e-05
-4.342551056224708e-05
1.6228715689334e-05
-4.430956077639368e-05
2.171734954081735e-05
-4.567125407812219e-05
2.725657755637968e-05
-4.755365215623355e-05
3.283490628926539e-05
-5.001553650367282e-05
3.841789913924098e-05
-5.313273100888861e-05
4.393561898846857e-05
-5.699784323998152e-05
4.926439937644682e-05
-6.171736852063079e-05
5.420299344328508e-05
-6.740241533974844e-05
5.843139739805575e-05
-7.413180551147405e-05
6.148502356293776e-05
-8.236898791980794e-05
6.503932277593296e-05
-9.615657473719502e-05
1.450384224565116e-06
-5.368538740290344e-05
1.710946732638974e-05
5.179824332058033e-05
2.824002608789706e-05
7.101415139987284e-05
3.501097612994394e-05
7.025625141327576e-05
3.894795707051412e-05
6.607637379740179e-05
4.134310862703108e-05
6.13683057046139e-05
4.323593618761739e-05
5.679987293926574e-05
4.547705148695647e-05
5.236177321653155e-05
4.879098346351218e-05
4.77398765577598e-05
4.194641581740434e-05
5.363537269115707e-05
4.939819207599684e-06
-4.790654216840149e-05
9.888069316471551e-06
-4.837375918685047e-05
1.484413540963688e-05
-4.926562550644013e-05
1.980454888054341e-05
-5.063166629351635e-05
2.475618241171519e-05
-5.250528461782203e-05
2.967089738036746e-05
-5.493025091693384e-05
3.449840131332436e-05
-5.79602354075796e-05
3.915674500656738e-05
-6.165618876989443e-05
4.352012081656028e-05
-6.608074755538919e-05
4.740560020769474e-05
-7.128789815882354e-05
5.055084854434975e-05
-7.727705518621665e-05
5.263851630670775e-05
-8.445499139425823e-05
5.754156856189671e-05
-9.726826596588174e-05
1.431468829636923e-05
-1.255170899538747e-05
1.810939673612625e-05
4.740914066141809e-05
2.534818390619277e-05
6.384002906205188e-05
3.068478063201334e-05
6.511709875948171e-05
3.43040798253057e-05
6.267591587344912e-05
3.677914830866649e-05
5.911533280349546e-05
3.869129407003421e-05
5.511032169156835e-05
4.045714831245469e-05
5.081859493719434e-05
4.232824526177967e-05
4.609148046508142e-05
4.048610666546759e-05
4.401126714367863e-05
4.492149578393101e-06
-5.239869027545245e-05
8.981483808475523e-06
-5.286309188545515e-05
1.345655289413493e-05
-5.374069310556036e-05
1.7902833464076e-05
-5.507794544690774e-05
2.229649495098788e-05
-5.689894488326544e-05
2.65999549820483e-05
-5.923371025246605e-05
3.07564873833041e-05
-6.211676807822027e-05
3.468385493938301e-05
-6.558355781754465e-05
3.826734073147707e-05
-6.966423608466735e-05
4.135438633768941e-05
-7.437494656042451e-05
4.374591193259049e-05
-7.966858165996349e-05
4.522653357317171e-05
-8.59339461052617e-05
4.937954569430268e-05
-9.795534596397656e-05
2.765796316657639e-05
7.384004602535569e-06
2.303992679999202e-05
5.164434675217778e-05
2.52660113438299e-05
6.172586942751294e-05
2.825662114274309e-05
6.233306975067942e-05
3.078705430626185e-05
6.036592312208824e-05
3.277203206920488e-05
5.735273766794876e-05
3.433193034271421e-05
5.377302018378276e-05
3.560123458272296e-05
4.9771956178668e-05
3.657718531540053e-05
4.533822285724057e-05
4.035539470452399e-05
3.693061928795583e-05
4.050800495012983e-06
-5.644948932121212e-05
8.090365692443201e-06
-5.690265550272721e-05
1.209954295643039e-05
-5.77498687573935e-05
1.605642374751997e-05
-5.90348246563592e-05
1.993091326953131e-05
-6.077343302264116e-05
2.368133628391719e-05
-6.29841324310079e-05
2.725072592033685e-05
-6.568615782984803e-05
3.056304754219224e-05
-6.88958807090206e-05
3.351999759238147e-05
-7.262118858771586e-05
3.600044891034125e-05
-7.68554002734719e-05
3.78595674179186e-05
-8.152770077924074e-05
3.895459070236339e-05
-8.702730176626155e-05
4.254370089293302e-05
-9.842642927645517e-05
2.916741544839357e-05
1.905167998441843e-05
2.458165698716377e-05
5.596783375760771e-05
2.479735813877518e-05
6.16545435732894e-05
2.623127195195839e-05
6.111160311293698e-05
2.780464722064689e-05
5.901399220504986e-05
2.918020809205299e-05
5.619961400502634e-05
3.028998282697027e-05
5.288582042330617e-05
3.11070313530867e-05
4.917753891220036e-05
3.155116440290377e-05
4.51167628550372e-05
4.071352828652811e-05
3.141574287243137e-05
3.624028635278258e-06
-6.007351650022715e-05
7.230988499793023e-06
-6.050961368817243e-05
1.079678102706982e-05
-6.13156595071806e-05
1.429514090688276e-05
-6.253318275816124e-05
1.769307443684324e-05
-6.417136497930998e-05
2.094844740923272e-05
-6.623950441104981e-05
2.400764915235083e-05
-6.874535955880555e-05
2.680367272455512e-05
-7.169190541521073e-05
2.925522600447093e-05
-7.507274417888483e-05
3.126841132413854e-05
-7.88685877494924e-05
3.273907525204633e-05
-8.299836517553122e-05
3.356804935072816e-05
-8.785460889125979e-05
3.668099350876211e-05
-9.875686875858055e-05
2.695642675258471e-05
2.715009508609446e-05
2.362883749597626e-05
5.913335456630068e-05
2.338221665316433e-05
6.207005808628847e-05
2.406433893014506e-05
6.06459790474921e-05
2.497404322809858e-05
5.832619553176334e-05
2.584116134637499e-05
5.55549444234966e-05
2.654420995450641e-05
5.240530213341843e-05
2.700530616215311e-05
4.89390327792867e-05
2.71369914919459e-05
4.520772477355361e-05
4.125950190538018e-05
2.681371684599862e-05
3.217420794598305e-06
-6.32909357548374e-05
6.414146000996053e-06
-6.370633703759392e-05
9.563391408323006e-06
-6.44649028986816e-05
1.263687811733362e-05
-6.560666742873842e-05
1.560109443818519e-05
-6.713557948149591e-05
1.841570320032901e-05
-6.905411199316697e-05
2.103222456515301e-05
-7.136188078575492e-05
2.339331371033184e-05
-7.405299561523975e-05
2.543310451672741e-05
-7.711253725390758e-05
2.707954267664396e-05
-8.051502793928778e-05
2.825779393573644e-05
-8.417661684506204e-05
2.889502641804202e-05
-8.8490176573568e-05
3.15692894169075e-05
-9.897696710051196e-05
2.379015335621964e-05
3.34196361153208e-05
2.163828428991122e-05
6.121031665638872e-05
2.134455010582676e-05
6.255079110982945e-05
2.166454764973975e-05
6.054497310800755e-05
2.216012021083479e-05
5.805278966883343e-05
2.26524396066103e-05
5.528505441910025e-05
2.303759281242305e-05
5.224264172208205e-05
2.323806132427205e-05
4.89611218159856e-05
2.318074739790359e-05
4.548766451833886e-05
4.187451867583642e-05
2.278841415959963e-05
2.834313935762307e-06
-6.612524799352277e-05
5.646083845928101e-06
-6.651810481600858e-05
8.407589992160452e-06
-6.722640672110776e-05
1.109025002974716e-05
-6.828932512454957e-05
1.366160671695715e-05
-6.970693407887423e-05
1.608437006288842e-05
-7.147687396989312e-05
1.831580786814601e-05
-7.359331836555121e-05
2.030774354338172e-05
-7.604493234246127e-05
2.200747776603187e-05
-7.881227381023003e-05
2.336001558514746e-05
-8.186756776724696e-05
2.431183279639037e-05
-8.512843448199211e-05
2.480659852702256e-05
-8.898328375439728e-05
2.705994493857472e-05
-9.909543516383845e-05
2.055452472959172e-05
3.85514428916365e-05
1.904773673785982e-05
6.271500566251817e-05
1.893122725163072e-05
6.286709809209657e-05
1.909608411702835e-05
6.060067945849412e-05
1.933288931243709e-05
5.80382906316948e-05
1.95611362431488e-05
5.527923808263912e-05
1.971172724485234e-05
5.231453517450461e-05
1.972786586773408e-05
4.916753210842464e-05
1.955544844691518e-05
4.588270105956627e-05
4.250500455642816e-05
1.914763879493732e-05
2.476251457467513e-06
-6.860149756494479e-05
4.929476778171566e-06
-6.897132770006168e-05
7.332306386206295e-06
-6.962923369603286e-05
9.657034189906702e-06
-7.061405031641862e-05
1.187320775481929e-05
-7.192310535173802e-05
1.394713969600511e-05
-7.355080447140385e-05
1.584177525437113e-05
-7.548795377677101e-05
1.751711330907224e-05
-7.772027165328065e-05
1.893138728684648e-05
-8.022655040998022e-05
2.0042928402943e-05
-8.297911106663329e-05
2.081436667986331e-05
-8.589987337146842e-05
2.120144630944192e-05
-8.936871632118785e-05
2.307792216479573e-05
-9.914260653401708e-05
1.737878030641108e-05
4.302419734235991e-05
1.641191353890285e-05
6.373995259647843e-05
1.639412212033402e-05
6.309353467471463e-05
1.645410304120545e-05
6.076222266316233e-05
1.651149973195328e-05
5.820331121158492e-05
1.654316983381074e-05
5.54700404464899e-05
1.651708871146887e-05
5.256313200800968e-05
1.640369623938414e-05
4.950349607513135e-05
1.61618279424125e-05
4.634720179449594e-05
4.312385472426892e-05
1.576565763576217e-05
2.143417147373658e-06
-7.074491267841549e-05
4.264334243801146e-06
-7.109224208642669e-05
6.336635081717157e-06
-7.170153168833687e-05
8.334247296315301e-06
-7.261165981311318e-05
1.022921911260737e-05
-7.381807489348167e-05
1.199155539175205e-05
-7.531313950662433e-05
1.358940036868545e-05
-7.708579898244132e-05
1.498973158695264e-05
-7.912060462629726e-05
1.615974065273272e-05
-8.139656263597086e-05
1.706836836513316e-05
-8.388774124014906e-05
1.769112175607688e-05
-8.652262760776685e-05
1.79922375946726e-05
-8.96682030828758e-05
1.949071330740494e-05
-9.910919387851634e-05
1.445342865843666e-05
4.697939917111918e-05
1.387925973285554e-05
6.442001751883437e-05
1.387343256532146e-05
6.331389163716583e-05
1.381557275682975e-05
6.104220164190805e-05
1.371397648031094e-05
5.852743899823171e-05
1.35819083871927e-05
5.582466215274432e-05
1.341717109397231e-05
5.29504529905755e-05
1.320148439709248e-05
4.994180627430556e-05
1.292143943804387e-05
4.684991205420245e-05
4.371490096931338e-05
1.255309096734469e-05
1.835007911095728e-06
-7.257991780714123e-05
3.648763482231553e-06
-7.290599412066842e-05
5.41701312614149e-06
-7.346977777653094e-05
7.115775575059566e-06
-7.431041903035531e-05
8.719777377476351e-06
-7.542207412136738e-05
1.020249239938185e-05
-7.679585324994028e-05
1.153651542432031e-05
-7.841982243647345e-05
1.269444410071587e-05
-8.027853540602775e-05
1.365055088879735e-05
-8.235267297026753e-05
1.438217124419751e-05
-8.461936399351886e-05
1.487641442321217e-05
-8.70168717528103e-05
1.510985723926852e-05
-8.990004461710912e-05
1.628686853240302e-05
-9.903873413015758e-05
1.189960830600764e-05
5.043912625371738e-05
1.157280766108729e-05
6.488976351605311e-05
1.14448716067429e-05
6.366004521755264e-05
1.122775893732312e-05
6.148178773928258e-05
1.095036489477915e-05
5.90274722300772e-05
1.06542121916271e-05
5.634346476768864e-05
1.036087881279066e-05
5.346645470595806e-05
1.007019107718395e-05
5.045518452976049e-05
9.769899700757125e-06
4.737291312178803e-05
4.426571665737706e-05
9.441809855848757e-06
1.549512957496647e-06
-7.412943071783851e-05
3.079531232654729e-06
-7.443601156409352e-05
4.568081722690353e-06
-7.49583275286421e-05
5.993534817197471e-06
-7.573587198904943e-05
7.333276352936314e-06
-7.676181655297231e-05
8.563829130722185e-06
-7.802640861001273e-05
9.661295145754492e-06
-7.951729306299224e-05
1.060235159204166e-05
-8.12195982947592e-05
1.136629862804836e-05
-8.311662792197019e-05
1.193626387693734e-05
-8.518933505951293e-05
1.231100164420215e-05
-8.739161388213861e-05
1.248286323685393e-05
-9.007035225287503e-05
1.336841731113848e-05
-9.895002458465191e-05
9.70675156491822e-06
5.332429747251995e-05
9.383340059046684e-06
6.538343639790495e-05
9.143587825664057e-06
6.412019005074735e-05
8.709976548069342e-06
6.21380394178138e-05
8.209309197357763e-06
5.975084122672196e-05
7.725930943840704e-06
5.704956342807571e-05
7.303418831635709e-06
5.411170482344806e-05
6.949528160071941e-06
5.10318253917708e-05
6.647439056871263e-06
4.789775359003723e-05
4.476162966362589e-05
6.374282722202999e-06
1.28488490673321e-06
-7.541431093231762e-05
2.552408087429104e-06
-7.570352941816969e-05
3.783223853153932e-06
-7.618913824994015e-05
4.958231864884491e-06
-7.691087561955896e-05
6.057372479731268e-06
-7.78609539461838e-05
7.059642649630548e-06
-7.902867730822181e-05
7.943433399022864e-06
-8.040108425003234e-05
8.687588047161875e-06
-8.196375489950321e-05
9.273998283104673e-06
-8.370304158568904e-05
9.688176483062742e-06
-8.560351397090001e-05
9.938384626855702e-06
-8.764182187640452e-05
1.003485153298856e-05
-9.01653376771495e-05
1.084300968025656e-05
-9.902455321983224e-05
7.939268383771571e-06
5.558853823712619e-05
7.554693995984367e-06
6.595740997933982e-05
7.062063130128234e-06
6.483431439119287e-05
6.268900763180911e-06
6.315382728461699e-05
5.456833103086327e-06
6.078558123987684e-05
4.741670183881116e-06
5.798744886203466e-05
4.180522319644181e-06
5.48956121583337e-05
3.778417923200297e-06
5.165670768812625e-05
3.497337400742893e-06
4.84016085198368e-05
4.518190249550396e-05
3.299843582226872e-06
1.038708136227714e-06
-7.645301248210653e-05
2.062587667085649e-06
-7.672740223029931e-05
3.055212077665324e-06
-7.718175669571357e-05
4.000273411333606e-06
-7.785593222398271e-05
4.880327107496138e-06
-7.874100460466201e-05
5.676364719836553e-06