/*--------------------------------*- C++ -*----------------------------------*\
| =========                 |                                                 |
| \\      /  F ield         | OpenFOAM: The Open Source CFD Toolbox           |
|  \\    /   O peration     | Version:  2206                                  |
|   \\  /    A nd           | Website:  www.openfoam.com                      |
|    \\/     M anipulation  |                                                 |
\*---------------------------------------------------------------------------*/
FoamFile
{
    version     2.0;
    format      ascii;
    arch        "LSB;label=32;scalar=64";
    class       volScalarField;
    location    "0.05";
    object      rho;
}
// * * * * * * * * * * * * * * * * * * * * * * * * * * * * * * * * * * * * * //

dimensions      [1 -3 0 0 0 0 0];

internalField   nonuniform List<scalar> 
2268
(
1001.360164701711
1001.360164752202
1001.360164818649
1001.360164905308
1001.360165018797
1001.360165169176
1001.360165372374
1001.360165655
1001.360166066134
1001.360166656681
1001.360168141702
1001.360162280097
1001.341355884859
1001.317734018326
442.2971159094295
1.154698387317711
1.060915859094461
1.011287094622416
0.9927930118388407
0.988057081128447
0.987189801907548
0.9870741908036068
0.9870633761598259
1001.360164947107
1001.3601650016
1001.360165076082
1001.360165175494
1001.360165307369
1001.360165483207
1001.360165721151
1001.360166051149
1001.360166527658
1001.360167199919
1001.360168857087
1001.360161188498
1001.339652327498
781.152184874457
75.77344010149703
1.12030629533649
1.039702651061168
1.002893488301258
0.9906801662167452
0.9876903189132236
0.9871443498730534
0.9870699470199038
0.9870626264696339
1001.360165192395
1001.360165250108
1001.360165331303
1001.360165441412
1001.360165588584
1001.360165785201
1001.36016605055
1001.360166415692
1001.360166935581
1001.360167647575
1001.360169376468
1001.360160218995
1001.336749748323
497.7008024646765
1.170489446504386
1.077822537410267
1.021165266288965
0.9968388777213765
0.9892302826270438
0.9874358122795504
0.9871113110660865
0.9870664712107435
0.987061833970832
1001.36016543681
1001.360165497308
1001.360165584482
1001.360165704132
1001.360165864766
1001.360166079182
1001.360166366931
1001.360166758464
1001.360167305718
1001.360168029706
1001.360169748486
1001.360159105151
998.4519720465752
284.7799076552842
1.138143100044209
1.051253023797696
1.008794787623126
0.9928951072852988
0.9883105298814462
0.9872747162043708
0.9870899108499426
0.9870638778565265
0.9870607621048961
1001.360165681769
1001.360165744671
1001.360165837202
1001.36016596542
1001.360166137981
1001.36016636773
1001.360166673812
1001.360167084897
1001.360167647753
1001.360168366602
1001.360170023625
1001.360157813124
934.7521269482876
183.5273000671571
1.112031986684932
1.032201344214958
1.000686883774901
0.9904715182654412
0.9877644854867299
0.9871798471968815
0.9870768402152976
0.9870615998817931
0.9870598713239755
1001.360165943231
1001.360166008553
1001.36016610659
1001.360166243608
1001.360166428277
1001.36016667323
1001.360166996715
1001.360167424759
1001.360167997313
1001.360168703248
1001.360170268073
1001.360156450855
871.0223118442125
119.9737017487076
1.09039631918677
1.018579714077235
0.9955591490874881
0.9890448578989096
0.9874548404857618
0.987126248616088
0.9870688772602672
0.9870599817754109
0.9870585941980932
1001.360166303448
1001.360166371978
1001.360166477039
1001.360166624979
1001.360166824148
1001.36016708634
1001.360167427806
1001.360167870161
1001.360168443598
1001.360169123348
1001.360170558309
1001.36015502595
807.130965828243
76.26783713626905
1.06543380590055
1.00800154596128
0.9922377212751394
0.9882033147967608
0.9872798659142016
0.987095989790539
0.9870640123308412
0.9870583676659015
0.987056957397041
1001.36016700991
1001.360167080219
1001.36016718926
1001.360167342802
1001.360167547719
1001.360167813282
1001.360168151459
1001.360168576775
1001.360169107083
1001.360169710764
1001.360170936766
1001.360153536372
753.9272683277982
48.57702097863343
1.043290965064128
1.000540073200077
0.9901723457759278
0.9877149511228164
0.9871815927488838
0.9870786472268065
0.9870605146594167
0.9870565472364433
0.9870549418393474
0.9870496702671138
0.9870497004134687
0.987049473707024
0.9870491708436273
0.9870488256412087
0.9870484466091133
0.987048058839356
0.98704767766954
0.9870473238466131
0.9870470013450944
0.9870467148872035
0.9870464582712035
0.9870462332394355
0.987046037622339
0.9870458768634458
0.9870457509039875
0.9870456625750695
0.9870456024827232
0.9870455386375271
0.9870493367716974
0.9870492738572468
0.9870490366474695
0.9870487480138332
0.9870484191292906
0.9870480510540808
0.98704767340351
0.9870472981208751
0.9870469481404536
0.9870466268643193
0.9870463420756597
0.9870460858786693
0.9870458625856108
0.9870456688982931
0.9870455116094026
0.9870453901482364
0.9870453067987893
0.9870452461173211
0.9870451189282108
0.9870488586832292
0.9870487510149279
0.9870485242623193
0.9870482620190101
0.9870479557557472
0.9870476055617572
0.9870472411329317
0.9870468745117573
0.9870465281051136
0.9870462084397973
0.9870459237233
0.9870456678183189
0.9870454448749442
0.9870452523144838
0.9870450963057325
0.9870449765050288
0.9870448944847049
0.9870448325722837
0.9870447128127894
0.9870483664625265
0.9870482314533628
0.9870480267656206
0.9870477911438486
0.9870475066833478
0.9870471737520431
0.9870468221363708
0.9870464634710147
0.9870461199486271
0.9870458013558822
0.9870455166089002
0.9870452608332422
0.9870450381905642
0.9870448466720301
0.9870446917296954
0.9870445731388222
0.9870444923376429
0.9870444292570471
0.9870443120594327
0.9870478297357067
0.9870477016022629
0.9870475253362025
0.9870473195459792
0.9870470560568596
0.9870467391972713
0.9870463997616307
0.9870460482263536
0.987045707376672
0.9870453903128182
0.987045105992104
0.9870448508259865
0.9870446290693394
0.9870444390654644
0.9870442854359183
0.9870441681401925
0.9870440883232217
0.9870440253006797
0.9870439076692417
0.9870472696729259
0.9870471469220353
0.987047043811035
0.9870468683119233
0.9870466264401038
0.987046324184415
0.9870459950862287
0.987045648822328
0.9870453097893985
0.987044993869394
0.9870447096135518
0.9870444548728093
0.9870442336074519
0.9870440448395861
0.9870438924847009
0.9870437767069213
0.9870436983288829
0.9870436348865672
0.9870435117797682
0.9870466446096834
0.9870466297163967
0.9870465508841244
0.9870464116021455
0.9870461868829853
0.9870458998041866
0.9870455825688506
0.9870452426810935
0.9870449085851749
0.9870445960439909
0.9870443133745838
0.9870440601511123
0.9870438401643229
0.9870436531715472
0.9870435022807529
0.9870433878552033
0.9870433101649144
0.9870432454551072
0.9870431345787888
0.9870460829767393
0.9870462532165162
0.9870461696321419
0.9870459746997381
0.9870457262196269
0.9870454257928359
0.9870451033023973
0.9870447649846507
0.9870444364612219
0.9870441307622647
0.987043854352559
0.9870436077676313
0.9870433936555879
0.9870432120863006
0.9870430648041159
0.9870429523847534
0.9870428736549981
0.9870428131490919
0.9870427089195623
1001.360166766095
1001.360166831865
1001.360166933706
1001.360167076913
1001.36016726755
1001.360167513765
1001.360167826085
1001.360168217469
1001.360168704039
1001.360169276121
1001.36017036305
1001.360151351085
694.164633858234
30.17208116609112
1.027833346375436
0.9949611342172566
0.9886170026810921
0.9873500671626851
0.9871081415654097
0.9870649585978033
0.9870570143258751
0.9870545784147743
0.9870522170704153
1001.360167209532
1001.360167274354
1001.360167376327
1001.360167520434
1001.360167711548
1001.360167956015
1001.360168261678
1001.360168637636
1001.36016909471
1001.36016961964
1001.360170568907
1001.360148276126
593.2500107641473
11.29003850106665
1.016898445479437
0.9918952259934017
0.9878909595147461
0.9871959589830874
0.9870777456773949
0.9870580817992541
0.9870541235172314
0.9870524418431367
0.987050811807172
1001.360167620787
1001.360167683103
1001.360167782293
1001.360167922984
1001.360168108831
1001.360168344436
1001.360168635251
1001.360168987214
1001.360169407167
1001.36016988029
1001.36017070146
1001.360144932159
510.7068472183051
3.377738253060032
1.013269487907641
0.9906467217049567
0.9875711552971534
0.987128396661664
0.9870639197640517
0.9870539749933691
0.9870517821917711
0.9870505919015539
0.9870496312443824
1001.36016800344
1001.360168062477
1001.360168157236
1001.360168292088
1001.360168469632
1001.360168693025
1001.360168965841
1001.360169291698
1001.360169674623
1001.360170099731
1001.360170808069
1001.360141375047
440.0657936340513
1.070209849971521
1.00251659884967
0.9893321624886542
0.9873608092540008
0.9870919387596098
0.9870562441696655
0.9870510647292382
0.9870497218045599
0.9870488278866802
0.9870480993899914
1001.360168356239
1001.360168411516
1001.360168500713
1001.360168628053
1001.360168795257
1001.36016900432
1001.360169257371
1001.360169556319
1001.360169903183
1001.360170283858
1001.360170893301
1001.360137622727
379.3101085454999
1.057539125725052
0.9983429220645381
0.9885607740015079
0.987235191977929
0.9870712288341886
0.9870514971376232
0.9870487117243149
0.9870478215331489
0.9870471259679363
0.9870465635403631
1001.360168678808
1001.360168730117
1001.360168813098
1001.360168931931
1001.360169087636
1001.360169281301
1001.36016951396
1001.360169786293
1001.360170098905
1001.360170438957
1001.360170962455
1001.360133680315
327.7533656947983
1.047404383986477
0.9954277760460123
0.9880438394270029
0.9871570971073993
0.9870589463732373
0.9870481849172256
0.9870466483739103
0.9870460141264225
0.987045466822596
0.9870450208271219
1001.360168971457
1001.3601690188
1001.360169095297
1001.360169205178
1001.360169348919
1001.360169526916
1001.360169739398
1001.360169986172
1001.360170266885
1001.360170570176
1001.360171019477
1001.360129557271
283.6822611647216
1.038217587457112
0.9931377447036536
0.9876827024534778
0.9871079622360062
0.9870513583341387
0.9870456487781881
0.9870447630665965
0.987044278907228
0.9870438447868431
0.9870434909597369
1001.360169234977
1001.360169278502
1001.360169348548
1001.360169449461
1001.360169581304
1001.360169743959
1001.360169937069
1001.360170159842
1001.360170411282
1001.360170681534
1001.360171067003
1001.360125263389
245.6680524706856
1.030136222616361
0.991413675435835
0.9874426873928102
0.9870782154632859
0.9870465653433051
0.9870435719620806
0.987043012683737
0.9870426171479086
0.9870422653157638
0.9870419718464057
1001.360169470249
1001.360169510201
1001.360169574036
1001.360169666262
1001.360169786635
1001.360169934654
1001.360170109538
1001.360170310076
1001.360170534838
1001.360170775347
1001.360171105626
1001.360120819713
212.6735330840856
1.022905688489142
0.9901254703126177
0.9872837453063216
0.9870603982985932
0.9870433856502863
0.9870418021818268
0.9870413981866604
0.9870410477674894
0.9870407469363395
0.9870404869303869
1001.360169676619
1001.360169713248
1001.360169771163
1001.360169855049
1001.360169964419
1001.360170098475
1001.360170256099
1001.360170435748
1001.360170635635
1001.360170848291
1001.360171128665
1001.360116243428
183.9486383389772
1.016386928809214
0.9891506987936741
0.9871813506630895
0.9870499329909417
0.9870411483582184
0.9870402569927538
0.9870399131400057
0.9870395749786518
0.9870392937489545
0.9870390372096205
1001.360169842698
1001.360169875947
1001.360169927723
1001.360170002815
1001.360170100491
1001.360170219637
1001.360170358753
1001.360170515862
1001.360170688643
1001.360170869438
1001.360171093427
1001.360111492487
158.8994175502964
1.010366645855364
0.9884166500561956
0.9871167679871646
0.9870438144033929
0.9870394585570212
0.9870388889324269
0.9870385563698553
0.9870382047372078
0.9870379137912634
0.9870376426078445
1001.360169893076
1001.360169921128
1001.360169963421
1001.360170024432
1001.360170102961
1001.360170197249
1001.360170304944
1001.360170422964
1001.360170547472
1001.360170665525
1001.360170774062
1001.360106130097
137.0933685922594
1.005253247349565
0.9879163289003401
0.9870792202025521
0.9870402359511379
0.9870380769939274
0.9870376489761727
0.9870373043412227
0.9870369244617202
0.9870366035479671
0.9870363065620311
1001.360169391778
1001.360169404209
1001.360169418282
1001.360169436265
1001.360169455453
1001.360169472004
1001.360169480714
1001.360169474648
1001.360169444386
1001.36016934759
1001.360169038717
1001.360097592051
117.94455744358
1.000743317158828
0.9875744314177249
0.9870574587874844
0.9870379238380859
0.9870368213712954
0.9870364660983233
0.9870361104201333
0.9870357027988809
0.9870353449093004
0.9870350228951212
1001.360165978017
1001.360165925459
1001.360165822807
1001.360165662173
1001.36016543546
1001.360165131381
1001.360164734419
1001.360164223448
1001.360163567385
1001.360162579636
1001.360160461255
1001.360073331882
101.403615192562
0.996910939051285
0.9873518587179706
0.9870453896188458
0.987036147750522
0.9870355389091582
0.9870352377721953
0.9870348896989127
0.9870344733650136
0.9870340896806949
0.9870337530528616
1001.360147608092
1001.360147278676
1001.360146678949
1001.360145760205
1001.360144495952
1001.360142849313
1001.360140768506
1001.36013818131
1001.360134973052
1001.360130280839
1001.360120298907
1001.359976837532
87.73691523147441
0.9939836829177523
0.9872207143461527
0.9870389146670118
0.9870344863479251
0.9870341422212616
0.9870338958137269
0.9870335841836314
0.9870331876932874
0.9870328030195722
0.9870324858082519
1001.360056957202
1001.360055528598
1001.3600529472
1001.360049019361
1001.360043660957
1001.360036753219
1001.36002812309
1001.360017521053
1001.360004515551
1001.359985216166
1001.359942641718
1001.359573939391
76.85273635099584
0.9916166283421
0.9871483165451059
0.9870350486507558
0.9870327090925031
0.9870325688850919
0.9870323995174859
0.9870321598147761
0.9870318200088524
0.9870314673151688
0.9870311828369873
1001.359643998168
1001.359638672186
1001.359628992122
1001.359614333099
1001.35959444765
1001.359568973852
1001.359537346587
1001.359498703496
1001.359451391392
1001.359378714404
1001.359210085583
1001.357987159265
71.79056047666727
0.9883517918772635
0.9870782410514792
0.9870320065870757
0.987030883964753
0.9870308216198951
0.9870307472806281
0.987030604451987
0.987030352960825
0.9870300661299777
0.9870298294071618
1001.357938983002
1001.357921916938
1001.357890391626
1001.357842869873
1001.357778691701
1001.357696840578
1001.357595534351
1001.357471720525
1001.357318480553
1001.357067528526
1001.356446680921
1001.352308583203
133.8975947090942
0.9968112553125262
0.9875351497965293
0.9870416104813763
0.9870291966198952
0.9870290048546273
0.9870290104245383
0.9870289585433891
0.9870288036931479
0.9870285941978387
0.9870284131922415
964.8870732359755
964.349027601594
963.3537502274818
961.845143511545
959.7899038868327
957.1384770943764
953.8076274966451
949.6534583206004
944.3234637195643
934.6259540512298
910.4566856573923
810.2355718507839
201.6623677233325
1.005764396934044
0.9851521155844387
0.9865019759823399
0.9870241045779722
0.9870271161944181
0.9870271908715146
0.9870272403005526
0.9870271895124633
0.9870270679445986
0.9870269499252097
274.6457816884237
273.0116069664468
270.016455104301
265.5799618188854
259.7135528476136
252.4276980766777
243.6899056621558
233.3697692499636
220.8408916505795
199.9076244933055
157.4479345271021
64.15733029299409
79.12646781680112
20.00388089656552
1.074406696158809
1.001490727426587
0.9871087861023692
0.9870245507512688
0.9870252980597052
0.9870254771547347
0.9870255394745354
0.9870255071432906
0.9870254448763264
1.008669143708153
1.00885314020749
1.008948075980364
1.009099720295788
1.009288095648231
1.009489909993304
1.009665982292079
1.009743863609224
1.009538674582017
1.008275712532061
1.003133976245523
0.989248841094858
1.040724603748967
2.99238210917315
1.027262957152872
0.992377077728666
0.9869931271706744
0.9870228289998837
0.9870234072570976
0.9870237234697748
0.987023887279864
0.9870239376564871
0.9870239303490189
0.9863025576964237
0.9862948504167834
0.9862837137134676
0.9862678724864218
0.986246836817844
0.9862202160725043
0.9861872791326654
0.9861466175223553
0.9861008383086224
0.98612615818254
0.9868252129220321
0.9910977165273283
1.001614561823716
1.017771542357378
0.9990213901117949
0.9882667452448858
0.9869956280945844
0.9870209717697053
0.9870216918696317
0.9870220324306552
0.9870222673283705
0.9870223806701606
0.9870224103177675
0.9870182032213189
0.9870183279651805
0.9870185773165787
0.9870190488782112
0.9870198124810684
0.9870209075048572
0.9870223425804128
0.98702434606806
0.987028605412672
0.9870437934635805
0.9871025727635193
0.9873104086526414
0.9880170855785754
0.9897269001485017
0.9892024749256492
0.987207499853713
0.987011494946037
0.987019585696154
0.9870200045579287
0.9870204296980736
0.9870206996513825
0.9870208617965658
0.9870209277586141
0.9870099533275924
0.987009919650796
0.9870099429015304
0.9870100725826938
0.9870103611654683
0.9870108247947222
0.9870114174387464
0.9870120248472253
0.9870125223081646
0.9870123641862731
0.9870109833872334
0.9870103766242686
0.987025838966038
0.9870940451736138
0.9872276360905863
0.9870357364010597
0.9870164046660301
0.9870180241369569
0.987018527714698
0.9870189126444714
0.9870191985466249
0.9870193902764649
0.9870194742206367
0.9870097000092191
0.9870096626664229
0.9870096664675394
0.987009761198878
0.987009996444201
0.98701039514471
0.9870109320128077
0.9870115352240092
0.9870121153832773
0.9870125581245059
0.9870128588286639
0.9870134170203444
0.9870142686365224
0.9870168703994689
0.9870245468297565
0.9870171929284213
0.9870161912699207
0.9870167547141847
0.9870171530379085
0.9870174902808858
0.9870177730195658
0.9870179867744644
0.9870180948151872
0.9870093909544035
0.9870093499197545
0.9870093369697662
0.987009399293208
0.9870095823638221
0.9870099105355936
0.9870103700713068
0.9870109086182997
0.9870114540514221
0.987011921835987
0.9870123246258928
0.9870127959379265
0.9870132636422854
0.9870137892069557
0.987014488262718
0.9870148221681841
0.9870151583471615
0.9870155197845607
0.9870158459839288
0.9870161432606382
0.9870164209574672
0.9870166465240428
0.9870167637361448
0.9870090197105686
0.9870089757907653
0.9870089503326106
0.9870089843893081
0.9870091159496781
0.9870093700308714
0.9870097445857228
0.9870102077416383
0.9870107062268628
0.9870111806517774
0.9870116114416826
0.9870120563170693
0.9870124820232676
0.9870129131636133
0.9870133614494194
0.987013721144825
0.9870140303556664
0.9870143239025738
0.987014604138156
0.9870148762420085
0.987015148113417
0.9870153856267295
0.9870155231881033
0.9870085872982525
0.987008544116648
0.9870085142803003
0.9870085299924873
0.9870086216020465
0.9870088118059736
0.9870091059728983
0.9870094873820137
0.987009920967183
0.9870103645846843
0.9870107914393494
0.987011208240298
0.9870116051700568
0.9870119833830054
0.9870123495293008
0.9870126668514537
0.987012938818088
0.987013187672648
0.9870134348458057
0.9870136863797719
0.9870139519963124
0.9870141905969041
0.9870143321641085
0.9870080925654183
0.9870080542743496
0.9870080290998111
0.9870080397338324
0.9870081070143175
0.9870082504292668
0.9870084795854629
0.9870087886957292
0.9870091561906056
0.987009551149285
0.9870099464004389
0.98701033085955
0.9870106980160714
0.9870110397126584
0.9870113569898591
0.9870116535274607
0.9870119045157941
0.9870121245373815
0.9870123466699762
0.9870125791775761
0.9870128329140989
0.9870130714094443
0.9870132269352835
0.9870075418860232
0.9870075128548665
0.9870075002557029
0.9870075165142508
0.9870075748910002
0.9870076898000625
0.9870078717521414
0.987008121706869
0.9870084283971294
0.9870087711303492
0.9870091274683784
0.9870094808507547
0.9870098217032435
0.9870101382503257
0.9870104270925358
0.9870107010399563
0.9870109342580746
0.9870111354262537
0.9870113333524373
0.9870115428083732
0.9870117781897838
0.9870120035271993
0.9870121560947408
0.9870069382688478
0.9870069215153591
0.987006926338754
0.9870069572820084
0.9870070193701208
0.9870071223351704
0.9870072759743969
0.9870074846313153
0.9870077436929942
0.9870080402787089
0.9870083572080437
0.9870086786592964
0.9870089928652727
0.9870092889434091
0.9870095580542133
0.9870098068352173
0.9870100243187883
0.9870102108120026
0.987010383795396
0.9870105684019994
0.9870107802098763
0.9870109912351437
0.9870111488037249
0.9870062924299392
0.9870062889223328
0.9870063124446148
0.9870063601780051
0.9870064324362876
0.9870065342275083
0.9870066731754521
0.987006854962835
0.9870070793303214
0.9870073390992563
0.9870076221691395
0.9870079150661725
0.9870082050459342
0.9870084804182251
0.9870087328654195
0.9870089609510879
0.9870091644711553
0.9870093306236608
0.9870094771560639
0.9870096341329562
0.9870098192862552
0.9870100073666611
0.987010155324359
0.9870056097256377
0.9870056191543631
0.9870056589660521
0.9870057230697125
0.9870058071564578
0.9870059130762405
0.987006046371629
0.9870062125469953
0.9870064133161451
0.9870066451645475
0.9870068999372329
0.9870071670021631
0.9870074345340345
0.9870076905972441
0.9870079274770798
0.9870081377974194
0.9870083220827964
0.987008469904567
0.9870085944828417
0.9870087267345949
0.9870088862259172
0.9870090556736828
0.9870092027496868
0.9870049025272781
0.9870049222570723
0.9870049737482287
0.9870050480444297
0.9870051402470983
0.987005249742216
0.9870053800697574
0.9870055358801313
0.9870057196928589
0.9870059303242729
0.9870061624632871
0.9870064076985977
0.9870066548854339
0.9870068952421204
0.9870071181707165
0.9870073134848873
0.9870074797488996
0.9870076122388425
0.9870077189785312
0.9870078286368204
0.9870079649339699
0.9870081132944261
0.9870082506046176
0.9870041753110561
0.9870042030989361
0.9870042601725622
0.9870043390385282
0.9870044337593441
0.9870045431479448
0.9870046695093396
0.9870048165395461
0.9870049868397224
0.9870051802949087
0.9870053934686355
0.9870056195156929
0.9870058503807851
0.9870060769587259
0.98700628769359
0.9870064720649558
0.9870066250867595
0.9870067473178704
0.9870068413299982
0.9870069337780452
0.9870070525300135
0.9870071877965696
0.9870073238387617
0.987003437843144
0.9870034694507061
0.9870035264125759
0.9870036019551424
0.9870036922579476
0.987003796010006
0.9870039148835276
0.9870040518648733
0.9870042092824375
0.9870043875923094
0.9870045843745815
0.9870047948896242
0.9870050127751291
0.9870052285460619
0.9870054306431575
0.9870056082418097
0.9870057537851203
0.987005868891256
0.9870059540203385
0.9870060351000488
0.9870061413214219
0.9870062640482581
0.9870063938073056
0.9870026897523144
0.9870027227372116
0.9870027745337582
0.9870028420902658
0.9870029227544961
0.9870030161915828
0.9870031242051738
0.9870032493208664
0.9870033936846683
0.9870035577513936
0.9870037402806767
0.9870039382045875
0.9870041456073645
0.9870043530653001
0.9870045501440217
0.9870047244478037
0.9870048671264288
0.9870049779908886
0.9870050591772724
0.987005135267538
0.9870052349374325
0.9870053530154845
0.987005483437742
0.987001934545332
0.9870019649234171
0.9870020081917205
0.9870020635507407
0.9870021309181237
0.9870022110086147
0.9870023058611533
0.9870024179606867
0.9870025490110865
0.987002700073552
0.9870028707583736
0.9870030584988017
0.9870032577755921
0.9870034601950142
0.9870036547650282
0.9870038283288946
0.9870039708204476
0.987004080394723
0.9870041610170323
0.9870042358175568
0.9870043324998623
0.9870044470031455
0.9870045759205321
0.9870011665220108
0.987001192553876
0.9870012254467089
0.9870012680485175
0.9870013215215724
0.9870013879457763
0.9870014698096263
0.9870015693141739
0.9870016886160946
0.9870018288976574
0.9870019900333616
0.9870021699798109
0.9870023636429849
0.9870025631106363
0.9870027566899913
0.9870029306615837
0.9870030739439527
0.9870031838180209
0.9870032659656807
0.9870033427268822
0.9870034407375372
0.9870035579004104
0.9870036907695073
0.9870003868207841
0.9870004018945699
0.9870004234971018
0.9870004540636107
0.9870004956642894
0.9870005508442804
0.9870006222620324
0.9870007124688459
0.9870008234418328
0.9870009564990837
0.9870011117690616
0.9870012872579806
0.9870014784202397
0.9870016766923286
0.9870018696719267
0.9870020431038923
0.9870021854910866
0.9870022942446821
0.9870023772322104
0.9870024571895627
0.9870025595768723
0.9870026824469798
0.987002822355706
0.9869995763421857
0.9869995837099386
0.9869995975671482
0.9869996211937063
0.9869996564475286
0.9869997061091109
0.9869997728531047
0.9869998591092821
0.9869999668286176
0.987000097298857
0.9870002506951988
0.9870004248529709
0.9870006146552478
0.9870008107804846
0.9870010001721582
0.9870011687947744
0.9870013064367368
0.9870014125842463
0.9870014979027585
0.9870015858728274
0.9870017000571991
0.9870018364360102
0.987001995359799
0.9869987100801573
0.9869987162379337
0.9869987365347856
0.9869987705827327
0.9869988195603239
0.986998884565776
0.986998966474088
0.9869990659424898
0.986999183256893
0.9869993182191944
0.9869994695769297
0.9869996346404994
0.9869998087899341
0.9869999852987117
0.9870001562697174
0.9870003146213238
0.9870004569017377
0.9870005856553108
0.9870007086399898
0.9870008392732497
0.9870009852466186
0.9870011332531049
0.9870012759287862
0.9870495866003155
0.987049187544881
0.9870483283193947
0.9870466294285515
0.9870494771305028
0.987048759605792
0.9870476159287573
0.9870465856048669
0.987048671330861
0.9870479145092191
0.9870470024065405
0.987046078334694
0.9870473177798293
0.9870466590465732
0.9870458633675798
0.9870451209758881
0.9870459428094409
0.9870453645276572
0.987044689550577
0.9870440279038969
0.9870445074005277
0.987044022312682
0.9870434513489694
0.9870428627030179
0.9870430671274285
0.987042668003172
0.9870421760043304
0.9870416459018673
0.9870415883869332
0.9870412596752631
0.987040840656238
0.9870403800430899
0.9870401199787402
0.98703984514749
0.9870394760037932
0.9870390818352204
0.9870386501995619
0.9870384052396389
0.9870380735370468
0.9870377527826614
0.9870372331145055
0.9870369929901034
0.9870366744001059
0.9870364108504074
0.9870358829409195
0.9870356224990947
0.9870353048101012
0.9870350824069628
0.9870346316794621
0.9870343409284447
0.9870340029070324
0.9870337854526476
0.9870334199049287
0.9870330926394569
0.9870327431421173
0.9870325155422136
0.9870322567142368
0.9870318901801181
0.9870315151950275
0.9870312399653576
0.9870310605727757
0.987030679741003
0.9870303220368132
0.9870300161268778
0.9870298227212221
0.9870294609380963
0.9870291106075736
0.9870287859934843
0.9870284701120461
0.9870281460711
0.9870278511788635
0.9870275379919468
0.9870270523231317
0.9870267881056879
0.9870265369321746
0.9870262533085051
0.9870255396184813
0.9870253503074989
0.9870251844571868
0.9870249615427257
0.9870240158911103
0.9870239066598925
0.9870238013360533
0.9870236464435036
0.9870224490337774
0.9870224250142486
0.9870224132231126
0.9870223424028114
0.9870209412434137
0.987020992343312
0.9870210382410681
0.9870210418173918
0.9870194355299072
0.9870195601872914
0.9870196897138276
0.9870197710293843
0.9870180374908832
0.9870182165301549
0.9870183873874168
0.9870185249047067
0.9870166649368858
0.9870168949062315
0.987017127206588
0.9870173176915203
0.9870154217080951
0.9870156792076695
0.987015929374945
0.9870161457598424
0.9870142075123719
0.987014489307275
0.9870147730120234
0.9870150113248073
0.9870131165119421
0.9870133996091542
0.9870136784986033
0.9870139134844593
0.9870120401768274
0.9870123242694125
0.9870126120896432
0.9870128444416024
0.9870110578543142
0.9870113261577185
0.9870115958167652
0.9870118080145466
0.9870100682350988
0.9870103258538288
0.9870105914940773
0.9870107906945362
0.9870091401612578
0.9870093773715355
0.9870096233867043
0.9870098005542765
0.9870081932195579
0.9870084183285196
0.9870086572956165
0.9870088225196914
0.9870072842211909
0.9870074933036319
0.9870077177100206
0.987007867451309
0.9870063554272863
0.987006557003073
0.9870067769930636
0.9870069214913519
0.9870054532015282
0.9870056454770113
0.9870058578805163
0.9870059959509877
0.9870045438525538
0.9870047331603359
0.987004944092095
0.9870050812832033
0.9870036631863351
0.9870038472888072
0.9870040529286622
0.9870041861696699
0.9870028009567849
0.987002980891497
0.9870031819238052
0.9870033083153023
0.9870019901680632
0.9870021525203172
0.9870023353975821
0.9870024472450281
0.9870012670481549
0.9870013874664717
0.9870015454321531
0.9870016144364356
0.9870460387875063
0.9870460777144103
0.9870458969306699
0.9870455358363354
0.9870451376712469
0.9870447501788147
0.9870443761557722
0.9870440165529809
0.9870436825408082
0.9870433779616077
0.9870431047705921
0.9870428630859063
0.9870426535155676
0.9870424758723356
0.9870423304940754
0.9870422171463812
0.9870421339210107
0.987042076232409
0.9870419918014262
0.9870460638229926
0.9870456226803468
0.9870451748069472
0.9870447127902868
0.9870442698410783
0.9870438600719297
0.9870434685041825
0.9870431034248757
0.9870427693210262
0.9870424670855812
0.987042197043957
0.9870419590303332
0.9870417531419988
0.9870415791705744
0.9870414371038296
0.9870413265857269
0.9870412458544491
0.9870411895032374
0.9870410905127478
0.9870457601501327
0.987045062695187
0.9870444314121551
0.9870438800116286
0.9870433913493565
0.9870429466949766
0.9870425409674213
0.9870421723590896
0.9870418389198075
0.9870415391445666
0.9870412724985341
0.9870410384205022
0.9870408365812715
0.9870406665475573
0.9870405281262946
0.9870404208603901
0.9870403421393941
0.9870402887220137
0.9870401828982779
0.9870449216885596
0.9870442543322467
0.9870435803558477
0.9870429796511999
0.9870424573441302
0.987041999697176
0.9870415900379289
0.987041222036251
0.9870408912451746
0.987040595406753
0.9870403333586573
0.9870401042378355
0.9870399072884727
0.9870397419070917
0.9870396077259475
0.9870395040846873
0.9870394291249406
0.98703937642526
0.987039268528379
0.987043859645844
0.9870432296019438
0.9870425768818796
0.9870419876558123
0.987041470558901
0.9870410151137957
0.9870406088746297
0.9870402448335382
0.9870399186903986
0.9870396281010335
0.9870393717036872
0.9870391482896494
0.987038956854264
0.9870387965992014
0.987038666977778
0.9870385672681081
0.9870384942086562