/*--------------------------------*- C++ -*----------------------------------*\
| =========                 |                                                 |
| \\      /  F ield         | OpenFOAM: The Open Source CFD Toolbox           |
|  \\    /   O peration     | Version:  2206                                  |
|   \\  /    A nd           | Website:  www.openfoam.com                      |
|    \\/     M anipulation  |                                                 |
\*---------------------------------------------------------------------------*/
FoamFile
{
    version     2.0;
    format      ascii;
    arch        "LSB;label=32;scalar=64";
    class       volScalarField;
    location    "0.05";
    object      T;
}
// * * * * * * * * * * * * * * * * * * * * * * * * * * * * * * * * * * * * * //

dimensions      [0 0 0 1 0 0 0];

internalField   nonuniform List<scalar> 
2268
(
272.9999989505291
272.9999987452611
272.9999984751209
272.9999981228083
272.9999976614172
272.9999970500533
272.9999962239515
272.9999950749377
272.9999934034743
272.9999910026059
272.9999849652592
273.0000087955251
273.0764596847005
273.1724677506912
273.2688772644673
298.4360107957399
324.8157237262336
340.7557277244092
347.1027698397839
348.7659222754727
349.0719332236271
349.1125714959653
349.1162843484478
272.9999979528712
272.999997731334
272.9999974285238
272.9999970243662
272.9999964882271
272.9999957733613
272.9999948059977
272.9999934643935
272.9999915271476
272.9999887940709
272.9999820568641
273.0000132334024
273.0833842660338
273.187570401401
273.565799291373
307.5965952830629
331.4427160122338
343.6072907017663
347.8427405899847
348.89516918722
349.0877576117777
349.1138285504366
349.1163069889583
272.9999969556549
272.9999967210206
272.9999963909254
272.9999959432762
272.9999953449482
272.9999945456031
272.9999934668252
272.9999919823432
272.9999898687338
272.9999869741248
272.9999799453216
273.0000171748964
273.0951822871956
273.2425046368398
294.4078752632817
319.7201185958443
337.459100617872
345.693866743973
348.3521991855181
348.9847827573486
349.0991482315094
349.1147709550693
349.1163014898594
272.9999959619856
272.9999957160314
272.9999953616263
272.9999948751883
272.9999942221331
272.9999933504228
272.9999921805785
272.9999905888029
272.999988363942
272.9999854205736
272.9999784328795
273.0000217032164
273.1080787327336
273.339378135122
302.7749256736526
327.8002866373744
341.5967604130242
347.0664974210887
348.6759874477475
349.0413731258296
349.1063832690124
349.1153601972404
349.1163513726094
272.9999949661054
272.9999947103782
272.999994334193
272.9999938129205
272.9999931113751
272.9999921773328
272.9999909329562
272.9999892616895
272.999986973402
272.9999840509223
272.9999773143002
273.0000269559392
273.1216971360299
273.5000499568651
309.8840363698872
333.8502210071705
344.3640033602042
347.9152618650874
348.8683135245585
349.0745313657779
349.1106381363794
349.1157997712756
349.1162932279341
272.9999939031313
272.9999936375632
272.9999932389956
272.9999926819481
272.9999919311751
272.9999909353209
272.9999896201946
272.9999878799795
272.9999855522642
272.9999826822847
272.9999763204955
273.0000324942367
273.1361014434783
273.7205877642666
316.0325463146751
338.3144836949726
346.1371959151712
348.4166348732525
348.9772717939958
349.0930759635887
349.1130581294736
349.1159708487414
349.1163249993903
272.9999924386703
272.9999921600585
272.9999917329343
272.9999911314836
272.9999903217626
272.9999892558212
272.9999878675928
272.9999860692003
272.9999837378899
272.9999809743686
272.9999751405376
273.0000382871775
273.1517447224669
274.029819930551
323.4367803643451
341.8644270780428
347.2953615552568
348.712857754525
349.0386679060746
349.1033504583083
349.1143599416102
349.1161089270702
349.1164304114077
272.9999895665481
272.9999892807078
272.9999888373995
272.9999882131786
272.9999873800852
272.9999863004429
272.9999849255828
272.9999831964582
272.9999810404956
272.999978586231
272.99997360192
273.0000443430474
273.1692304176935
274.5805869247454
330.3011215551099
344.4134128894463
348.0192637000997
348.8847809014752
349.0729530105447
349.1090454562866
349.1151624905825
349.1162933460736
349.1166013838172
349.117390609723
349.117349759194
349.1173733729602
349.1174066294296
349.1174462987603
349.1174956600183
349.117549800351
349.1176057039275
349.1176574290429
349.1177043484563
349.1177451970125
349.1177823486692
349.1178152352866
349.117844597967
349.1178684478621
349.1178867290316
349.1178983655277
349.117906617146
349.1179227430184
349.1173085757628
349.117300174259
349.1173262725293
349.1173531686273
349.1173860349614
349.1174308210859
349.1174809482496
349.1175345113646
349.1175847307497
349.1176311395369
349.1176713627212
349.1177083562578
349.1177406320812
349.1177693234715
349.1177919598838
349.1178086635642
349.1178185502968
349.1178270191667
349.1178655565041
349.1172825649474
349.1172890351373
349.117308765571
349.1173235427352
349.1173463065307
349.1173833713917
349.1174279568539
349.1174779428137
349.1175266078337
349.1175722953261
349.1176124257444
349.1176492986401
349.1176814613661
349.1177097786568
349.1177319916188
349.1177481364124
349.1177575768858
349.1177664982906
349.1178024153019
349.1172664956539
349.1172813895776
349.1172889534652
349.1172899371745
349.1173018117208
349.1173307065415
349.1173694925225
349.1174159169621
349.1174631425532
349.1175082343797
349.1175482823672
349.1175850889288
349.1176171651016
349.117645153437
349.1176670353193
349.1176827963495
349.1176918423943
349.1177012030233
349.1177362265723
349.1172711035289
349.1172824304966
349.1172734298412
349.117257717556
349.1172579438502
349.1172784842437
349.1173113446401
349.1173543027755
349.1174000593492
349.1174443446441
349.1174841324581
349.117520705844
349.1175525016203
349.1175800114347
349.1176014934924
349.1176168573433
349.1176256056304
349.1176349811633
349.117670175925
349.1172875638694
349.1172979017718
349.1172535892185
349.1172190469928
349.1172064244059
349.1172186182971
349.1172459271486
349.1172859290608
349.1173304457922
349.1173740313226
349.1174136833882
349.1174500997974
349.1174817731008
349.1175089238658
349.1175300400806
349.1175449460487
349.1175532501607
349.1175628195416
349.1175999738961
349.1173276864697
349.1173067066698
349.1172400828763
349.1171824700383
349.1171578091529
349.1171610812677
349.1171821158376
349.1172186833327
349.1172608209028
349.1173029111533
349.11734190109
349.1173777948576
349.1174090915698
349.1174357174014
349.1174564237599
349.1174709501516
349.1174790912006
349.1174891647981
349.117522021584
349.1173629112167
349.1172735516124
349.1171885941641
349.1171382200558
349.117115567004
349.1171198187368
349.1171405652171
349.1171753809821
349.1172149233
349.1172543150819
349.1172910182086
349.1173246089901
349.117353934536
349.11737877414
349.1173983379314
349.1174122749507
349.1174208804221
349.1174295342244
349.1174600740483
272.9999905577778
272.9999902903902
272.9999898763537
272.9999892941479
272.9999885191127
272.9999875181248
272.9999862483922
272.9999846572199
272.9999826790665
272.9999803532712
272.999975934363
273.0000532273204
273.185658568132
275.4005568846092
335.2678068986036
346.3437724443522
348.5659467733439
349.0129310039292
349.0981966411726
349.1131909575416
349.1157085607947
349.1162408681683
349.116538687254
272.9999887549852
272.9999884914534
272.9999880768819
272.9999874910147
272.9999867140394
272.999985720161
272.9999844774852
272.9999829490295
272.999981090798
272.9999789566936
272.9999750974503
273.0000657285443
273.2192238883716
277.7943938199437
338.8706397419793
347.4127881697009
348.8208791763481
349.0663239723763
349.1079519221042
349.1146898348044
349.115834490052
349.1161301164894
349.1163434305769
272.9999870830288
272.9999868296801
272.9999864264269
272.9999858544481
272.999985098887
272.9999841410324
272.9999829587254
272.9999815278188
272.9999798205029
272.9999778970229
272.9999745585551
273.0000793234246
273.2580895761309
289.820020012258
340.0824000621533
347.8492054398701
348.932655751592
349.0891681480925
349.1118819160542
349.1152463467136
349.1158220141229
349.1160049584261
349.1160736590956
272.9999855273516
272.9999852873386
272.9999849020953
272.9999843538531
272.9999836320505
272.9999827238476
272.9999816147138
272.999980289941
272.9999787331578
272.9999770048854
272.9999741251373
273.0000937848418
273.3022411636251
321.9864868050895
343.7291094220563
348.3103580261821
349.0059930061492
349.1011146439014
349.1137007331869
349.1154279675287
349.1157504744992
349.1158775927823
349.1159166977607
272.9999840930484
272.99998386832
272.9999835056884
272.9999829879875
272.9999823082214
272.9999814582736
272.9999804294969
272.9999792141224
272.9999778039489
272.9999762563154
272.999973778624
273.0001090398749
273.352003804922
325.8445340805921
345.1655927259998
348.581379730482
349.0495625680663
349.1075928285973
349.114550705746
349.1154596471245
349.1156560066719
349.1157510201895
349.1157741119217
272.9999827816444
272.9999825730458
272.9999822356871
272.9999817525705
272.9999811195536
272.9999803322094
272.9999793863326
272.9999782791668
272.9999770082415
272.999975625761
272.99997349748
273.0001250677294
273.4085271116679
328.9971420951557
346.1758965968312
348.763074130766
349.0764268791712
349.1111622827208
349.1149476360487
349.1154293845316
349.1155583591424
349.1156298296105
349.1156451938728
272.9999815918777
272.9999813994082
272.9999810884102
272.9999806416869
272.9999800573096
272.9999793336605
272.9999784698163
272.9999774665554
272.9999763253183
272.9999750922905
272.9999732656578
273.0001418299379
273.473406523861
331.9078285459189
346.9735459943604
348.8899358536378
349.0930958266067
349.1131160923645
349.1151091845493
349.1153679068137
349.1154594290329
349.1155123353041
349.1155206213493
272.9999805205373
272.9999803435861
272.9999800588171
272.999979648555
272.9999791125475
272.999978451272
272.9999776661826
272.9999767605007
272.999975738272
272.9999746395609
272.9999730724384
273.0001592866925
273.5484005148866
334.511053435612
347.5763116806353
348.974079528758
349.1029287705413
349.1141076308708
349.1151347601727
349.1152819969043
349.1153531880057
349.1153931603234
349.1153998603242
272.9999795640425
272.9999794016146
272.9999791420961
272.9999787671491
272.9999782777747
272.9999776760033
272.9999769650133
272.9999761497261
272.9999752359528
272.9999742581663
272.9999729154183
273.0001773524269
273.6348939262324
336.8749661440559
348.0278798282058
349.0295962702228
349.1085516595117
349.1145439209726
349.1150690287934
349.1151643706455
349.1152280357492
349.1152626451908
349.1152732596587
272.9999787250458
272.9999785761288
272.9999783406761
272.9999779996376
272.9999775549928
272.9999770099899
272.9999763691687
272.9999756388068
272.9999748261642
272.9999739616144
272.9999728217533
273.0001959572872
273.7350600945385
339.0349233914175
348.3701870475649
349.0651311603938
349.1115786940524
349.1146558603028
349.11493490968
349.1150120310091
349.1150784470348
349.1151165985825
349.1151390300748
272.9999780498514
272.9999779146767
272.99997770418
272.9999773988965
272.9999770017923
272.9999765174042
272.9999759518279
272.9999753131044
272.99997461066
272.9999738756384
272.9999729650137
273.0002152722098
273.8520324289529
341.0544096941036
348.628236953472
349.0872996845102
349.1130708560261
349.1145795026058
349.1147450196364
349.1148214799749
349.1148990881513
349.1149498286437
349.1149887337916
272.9999778450394
272.9999777309969
272.9999775590513
272.9999773110126
272.9999769917538
272.9999766084265
272.9999761705927
272.9999756907838
272.9999751845941
272.9999747046531
272.999974263397
273.0002370729861
273.9884277556604
342.7885809624945
348.8041276119774
349.099909949929
349.113666428726
349.1143972513437
349.1145137381973
349.1145980318445
349.114691783894
349.1147615616519
349.1148198549516
272.9999798830769
272.9999798325372
272.9999797753237
272.9999797022131
272.9999796242061
272.999979556921
272.999979521511
272.9999795461724
272.9999796692073
272.9999800627353
272.9999813184639
273.0002717844283
274.1463407936553
344.3327255300234
348.924217545903
349.1069400820248
349.1138156555523
349.1141718342396
349.1142637240865
349.1143556165708
349.1144653543342
349.1145564292835
349.1146333859078
272.9999937617641
272.9999939754404
272.9999943927725
272.9999950458317
272.9999959675391
272.999997203776
272.9999988176297
273.0000008949916
273.0000035622239
273.0000075779291
273.0000161902376
273.0003704142924
274.3255032115015
345.6557778513254
349.0022152323611
349.1105462808462
349.1137759928058
349.1139551733612
349.114028660552
349.1141217442783
349.1142411897171
349.1143498681039
349.1144418697867
273.0000684448868
273.0000697841291
273.0000722223304
273.0000759574932
273.000081097327
273.0000877917536
273.0000962512949
273.0001067695695
273.0001198127739
273.0001388890136
273.0001794706561
273.0007627125382
274.516914230984
346.6730922154418
349.0479323477121
349.1121781231607
349.1136939751598
349.1137749370295
349.1138294126792
349.113914023082
349.1140343880696
349.1141526829615
349.1142483106793
273.0004369867445
273.0004427947437
273.0004532894336
273.0004692580836
273.0004910427074
273.0005191261543
273.0005542119857
273.0005973146182
273.0006501885417
273.0007286502673
273.0009017368117
273.0024006931191
274.6826833379804
347.5000202620112
349.0729049040132
349.1128887716376
349.1136453871087
349.1136476962392
349.1136758649375
349.113741774737
349.1138513025057
349.1139696600027
349.1140656133252
273.0021158705625
273.002137523291
273.0021768774985
273.0022364736077
273.0023173176847
273.0024208811149
273.0025494613622
273.0027065643142
273.0028989109473
273.0031943779957
273.0038799349396
273.00885168438
274.736397325851
348.6474135744676
349.0970875698051
349.1132994635436
349.1135949643295
349.1135619870827
349.1135620333242
349.113605023617
349.113696802993
349.1138059592259
349.1138988293336
273.0090475396332
273.0091169205205
273.0092450844454
273.0094382807017
273.0096991922995
273.0100319517564
273.0104438041195
273.0109471588333
273.0115701423381
273.0125903639067
273.0151143518176
273.031936980309
274.520847720482
345.688348192821
348.9349717868058
349.1091946160712
349.1134524538149
349.1134675810764
349.1134558070498
349.1134865282718
349.1135636014513
349.1136633385163
349.1137526914446
273.0341428024161
273.0343248994612
273.0346719072819
273.03519215569
273.0358921701465
273.0367819346127
273.0378810742729
273.0392281457291
273.0409372133707
273.0440672502872
273.0526040379187
273.1047823068569
274.2825861074183
342.6113354081517
349.7782740142442
349.2993355675566
349.1144283618185
349.1133477210182
349.1133508195342
349.1133789313491
349.1134462993392
349.1135372289456
349.1136229326092
273.1237675842661
273.1243204869357
273.1254187232302
273.1270666117059
273.1292988643544
273.1321635102145
273.1357471053576
273.1402077979558
273.1460739128125
273.1583297891592
273.197181604841
273.4392869463799
275.062171234122
276.2521038075096
320.7193328309663
344.0703900515972
349.0835154196475
349.1134078962299
349.1132462042286
349.1132768056423
349.1133384940421
349.1134237541251
349.1135101223571
341.6147892388973
341.5525136960232
341.5204141155377
341.469148935928
341.4054918313232
341.3373309567783
341.2779121033379
341.251702130137
341.3211628902035
341.748743963607
343.5003017976831
348.321196492818
331.0911035818312
292.4208318880699
335.4355813857761
347.2287443741803
349.1233563347082
349.1131428820811
349.1131352797043
349.1131729415899
349.1132358365479
349.1133187722011
349.1134062994519
349.3615418962972
349.3642919576808
349.3682750976597
349.3739443504602
349.3814734361496
349.3910006112218
349.4027841122001
349.4173203051328
349.433681501471
349.424853027219
349.1774017714214
347.8790546172456
344.5381207568307
338.5609022769344
344.9170642259137
348.6718015539109
349.121529081676
349.112974308041
349.1129891555639
349.113065414046
349.1131359077734
349.1132208294603
349.113314044408
349.1081883780812
349.1081639825341
349.1081160814951
349.1080102735979
349.1078221084312
349.1075378788977
349.1071545818461
349.1065912392299
349.1052523018531
349.1000684800281
349.0794535280164
349.0061135710781
348.7680329448141
348.1993087046753
348.3406846364845
349.0453647717044
349.1152206336709
349.1127512022815
349.1128913316573
349.1129612877428
349.1130407025746
349.1131264260732
349.1132218357831
349.1110265883072
349.1110582001376
349.111091074937
349.1111077692987
349.111090135696
349.1110330562901
349.110953565441
349.1108932321961
349.1108982980514
349.1111605664569
349.1118712876225
349.1123522396656
349.1072963560312
349.0837722477667
349.0372319023616
349.1056362445947
349.1129052005558
349.1126784137725
349.112777624838
349.1128659937498
349.1129493832748
349.1130355668741
349.1131351528361
349.1110089375809
349.1110418829827
349.1110819094901
349.1111115563156
349.1111137865017
349.1110812383944
349.1110239123623
349.110968797111
349.1109495996571
349.1110076205064
349.1111471555507
349.1112497724707
349.1113361950259
349.1108884569214
349.1086739352081
349.1117134363636
349.1124376467384
349.1125497101111
349.1126703325979
349.1127712833913
349.1128578823804
349.1129414830185
349.1130389935933
349.1109836073611
349.1110177039986
349.1110633230653
349.1111039604447
349.111124020011
349.1111156105384
349.1110845946098
349.111050872097
349.1110416036609
349.1110883344751
349.1111909870508
349.1113137981715
349.1114907468683
349.11168975711
349.1118359108562
349.1120821269394
349.1122861701131
349.1124407119706
349.1125705070612
349.1126778345257
349.1127640540815
349.1128447454757
349.1129422512645
349.1109534133639
349.1109881409142
349.1110372883817
349.1110865087318
349.1111227697964
349.1111378071482
349.1111331293401
349.1111210115072
349.1111214559401
349.1111568985249
349.1112370517795
349.1113454580541
349.1114936287177
349.1116632265809
349.1118312881687
349.1120150591393
349.112190365126
349.1123430091739
349.1124725994785
349.112579270137
349.1126628493153
349.1127379335953
349.1128291005941
349.110918890034
349.1109527577808
349.1110020976246
349.1110556495677
349.1111029654838
349.1111364166601
349.1111546108986
349.111164057205
349.1111778040274
349.1112115068556
349.1112756189358
349.1113680849631
349.1114895716213
349.1116320963758
349.1117819904777
349.1119404108983
349.1120979569035
349.1122436757421
349.1123691454044
349.112472757533
349.112552368143
349.1126239434299
349.1127128387193
349.1108816259724
349.1109130071391
349.1109590103793
349.1110116853241
349.1110638229648
349.1111087419731
349.1111432840883
349.1111697294579
349.1111958867771
349.1112327560125
349.1112897118468
349.1113694900462
349.1114711499501
349.1115918375324
349.1117237800792
349.1118582074047
349.1119975585534
349.1121335566444
349.1122531575422
349.1123531019497
349.1124299902208
349.1124973955901
349.1125793133941
349.1108407352919
349.1108679824966
349.1109076474153
349.1109553570466
349.1110064688505
349.1110559309756
349.111100039551
349.11113839883
349.1111748009183
349.1112161322431
349.1112694589075
349.1113389345969
349.1114249312971
349.1115272233717
349.1116418362097
349.1117590920639
349.1118834451268
349.1120088981773
349.1121236611265
349.1122217440265
349.1122979701984
349.1123652305129
349.1124453808465
349.1107966158356
349.1108186118323
349.1108501354394
349.1108895552992
349.1109350479289
349.1109830842437
349.1110300384425
349.111074103238
349.1111164619491
349.1111609453425
349.1112124827166
349.1112748814066
349.1113496773398
349.1114372906924
349.111537025483
349.1116427227457
349.1117546249058
349.1118705131162
349.1119820620709
349.1120795429316
349.1121570611065
349.1122243483582
349.1122994626779
349.1107469541134
349.1107633503119
349.1107862858817
349.1108166970547
349.1108543532754
349.110897296102
349.1109425474828
349.1109876822258
349.1110321881474
349.1110777366953
349.1111273818817
349.1111841890581
349.1112504085736
349.111327453967
349.1114153173072
349.1115116060566
349.111613848776
349.1117236663575
349.1118337362113
349.1119323371118
349.1120125625705
349.1120829464364
349.1121579864741
349.1106912869241
349.1107022211309
349.1107174968107
349.1107391806083
349.1107686243832
349.1108049189838
349.1108457420308
349.1108886456335
349.1109323400871
349.1109771513849
349.1110247610098
349.111077372215
349.1111372283835
349.1112063435252
349.1112850813505
349.1113737179455
349.1114699063568
349.1115752507791
349.1116836823305
349.111783245518
349.1118663090592
349.1119384610021
349.1120103180309
349.110626581597
349.1106330399394
349.1106424133488
349.1106577639521
349.1106806174591
349.1107108938799
349.1107469318287
349.1107865415053
349.1108281204631
349.1108711769058
349.1109164458338
349.1109654953588
349.1110206091085
349.111083046913
349.1111546030969
349.1112369497785
349.1113287693379
349.111430026593
349.1115365801111
349.1116372145053
349.11172280645
349.1117979132456
349.1118698459525
349.1105524820154
349.11055532998
349.1105611199148
349.110572385976
349.1105910009134
349.1106170633319
349.1106493258234
349.1106859212242
349.1107252213264
349.110766388713
349.1108095712388
349.1108559272437
349.1109068689123
349.1109640359045
349.1110298645878
349.11110643701
349.1111939551162
349.1112907892846
349.1113947144048
349.1114953548657
349.1115820865975
349.1116577201225
349.111726939724
349.1104666283786
349.1104674494309
349.1104718548564
349.1104821192661
349.1104993563173
349.1105236978538
349.110554113826
349.1105889910002
349.110626816032
349.1106665930046
349.110708190782
349.1107521502993
349.1107994510514
349.1108520711182
349.1109126722959
349.1109836577443
349.1110663335989
349.1111588583099
349.111259897151
349.1113593221603
349.1114460520096
349.1115224702801
349.1115910414007
349.1103701055378
349.1103698554997
349.1103748620566
349.1103860821964
349.1104042129288
349.1104290393934
349.1104594890256
349.1104941214093
349.1105315139351
349.110570718936
349.110611263137
349.1106531985176
349.1106974760727
349.1107462094398
349.1108018278047
349.1108674513025
349.11094498789
349.1110333552276
349.1111307308472
349.1112274955953
349.111312751702
349.1113876516208
349.1114534604024
349.1102624826478
349.1102626670599
349.1102696692536
349.1102836508077
349.1103044007039
349.1103313370593
349.1103633101513
349.1103989085562
349.1104368958485
349.1104761547552
349.1105159730883
349.1105563060893
349.1105980669927
349.1106431228159
349.110694222342
349.1107548751486
349.1108275266832
349.110911769754
349.111005211679
349.1110987906249
349.1111819563527
349.1112554682505
349.1113196621909
349.1101464418043
349.1101477743194
349.1101576333667
349.110174893076
349.1101989050247
349.1102286088903
349.1102627031545
349.1102998961513
349.1103388167833
349.1103783415579
349.1104177136716
349.1104567659917
349.1104963394052
349.1105382161714
349.110585482351
349.1106419340228
349.1107104546527
349.1107910134373
349.1108806674707
349.1109706706923
349.1110508595579
349.1111213017728
349.111182357441
349.1100221043941
349.1100270223491
349.1100402705055
349.1100608710668
349.1100878562632
349.1101200053799
349.110155967543
349.1101943410018
349.1102338384999
349.1102733160992
349.1103119626839
349.1103496412634
349.1103870532303
349.1104262710073
349.1104706942739
349.1105243698077
349.1105903837798
349.1106687071641
349.1107556642608
349.1108423942065
349.1109191624002
349.1109859867311
349.1110432362817
349.1098966091489
349.1099040588578
349.1099196504038
349.1099421048363
349.1099705314178
349.1100036292606
349.1100400497468
349.1100784435612
349.1101175459832
349.1101562416077
349.1101937267929
349.1102299556292
349.110265865972
349.1103038362356
349.1103475371298
349.1104009766502
349.1104668219311
349.1105443412109
349.1106288964017
349.1107113725743
349.1107827249401
349.1108437060915
349.1108933500526
349.1097790767457
349.1097868615889
349.1097999876835
349.1098184670974
349.1098416521111
349.109868839779
349.1098993209373
349.1099323781471
349.1099673414346
349.1100036287087
349.1100409534748
349.1100794690904
349.1101199538319
349.1101638862455
349.1102131310848
349.110269255565
349.1103325535204
349.1104012274616
349.1104716829544
349.1105383648222
349.1105978566158
349.1106541958373
349.1107091505327
349.1166686940299
349.1166171163363
349.1168269389113
349.1173069735448
349.1164687580592
349.116520464925
349.1167557197346
349.1169680703842
349.1161709050199
349.1162816796213
349.116460458818
349.1166557512545
349.1160113437322
349.1161269830037
349.1162949311486
349.1164486793686
349.115852152899
349.1159644476595
349.1161114573551
349.1162554242333
349.1157129445481
349.1158098397726
349.1159365691954
349.1160699939053
349.1155772298981
349.1156569983341
349.1157687329371
349.1158938225962
349.1154581586776
349.1155234434202
349.1156197286174
349.1157303706269
349.1153385591092
349.1153932358147
349.1154804058217
349.1155760115943
349.1152221300497
349.1152733305959
349.1153544825819
349.115431373168
349.115089074075
349.1151447348569
349.1152275751198
349.1152906247628
349.1149336042521
349.1150020390891
349.1150903012406
349.1151446148828
349.1147436439446
349.114828075288
349.114928940353
349.1149869832931
349.1145394993927
349.114642053323
349.1147522856674
349.1148192664813
349.1143173537704
349.1144391690142
349.114563826335
349.1146530620039
349.1141057461047
349.1142383177578
349.1143625131926
349.1144681844216
349.113907854728
349.1140398232842
349.1141673901031
349.1142855140316
349.1137500486624
349.1138753250988
349.1139896542277
349.1141098798518
349.1136160314653
349.1137272889324
349.1138328718035
349.1139490478433
349.1135183689937
349.1136105468892
349.1136928341629
349.1137940546081
349.1134301329955
349.1135013025929
349.1135689285849
349.1136524653444
349.11336576231
349.1134135438881
349.1134543285037
349.1135140576478
349.1132919706566
349.1133189403139
349.1133447169778
349.1133833283502
349.1132309801484
349.1132364491369
349.1132369902544
349.1132523803327
349.1131464378007
349.1131359313683
349.1131251094839
349.1131239180834
349.113067493153
349.1130411143543
349.1130108169066
349.1129932618405
349.1129568958324
349.1129219984772
349.1128867882284
349.1128616307673
349.1128492619457
349.1128062633125
349.1127599073209
349.1127278762251
349.1127102646863
349.11266674653
349.1126222724993
349.112591762062
349.1125772172817
349.1125328882014
349.1124850310499
349.1124553846213
349.1124209955212
349.1123815169727
349.1123395723585
349.1123166874655
349.1122764345573
349.112239826385
349.1121985999863
349.1121797403695
349.1121182661957
349.1120878765865
349.1120527761478
349.1120410107146
349.1119741077454
349.1119469715817
349.1119135002624
349.1119051975444
349.1118231377606
349.1118006665712
349.11177148363
349.1117678839782
349.1116851495507
349.1116643919225
349.1116359505594
349.1116334606059
349.1115432082855
349.1115248904539
349.1114983840579
349.1114974828065
349.1114087846363
349.1113907809664
349.111364142135
349.1113629508401
349.1112688512742
349.1112520840716
349.111226777111
349.1112264838606
349.1111267491239
349.1111109942774
349.1110869030489
349.1110886485828
349.1109705978436
349.1109607515479
349.1109428029532
349.1109494332828
349.1107874398368
349.1107922719197
349.1107829969466
349.1108046497268
349.1172608651983
349.1170799001686
349.116992339102
349.1169816226676
349.1170006551865
349.1170297445349
349.1170654217077
349.1171059680438
349.1171465485812
349.1171851785012
349.1172206958725
349.1172526862857
349.1172806293922
349.1173043375246
349.1173234804966
349.1173379692306
349.1173483429937
349.117356123271
349.1173797222704
349.1169139757303
349.1168350200703
349.1168163368305
349.1168290919715
349.1168556748142
349.1168873316346
349.1169261169339
349.1169669791284
349.1170069168342
349.1170446302881
349.1170792935038
349.1171104315872
349.1171375974389
349.1171605396221
349.1171790043603
349.117192914166
349.1172027359266
349.1172102684823
349.1172391301315
349.1165632293911
349.1165789048358
349.116618707391
349.1166590225397
349.1166990150009
349.1167411695567
349.1167840090524
349.116825867414
349.116865814112
349.1169032204143
349.1169374246948
349.1169679874379
349.1169945378167
349.1170168515581
349.1170347026191
349.1170480245813
349.1170575680336
349.1170643553328
349.1170957801625
349.116344339598
349.1163687901515
349.1164303567906
349.1164917547706
349.1165459137384
349.1165942049606
349.1166397562167
349.1166827010246
349.1167230407791
349.1167603974093
349.1167942929426
349.1168243549242
349.1168503287544
349.1168720228135
349.1168892522713
349.1169020078835
349.1169107641006
349.1169176614849
349.1169500007644
349.1161674812312
349.1162035019963
349.1162716058208
349.1163378175319
349.1163961850998
349.1164480611729
349.116495786546
349.1165401336495
349.1165812599782
349.1166189186725
349.1166527476418
349.1166825133657
349.1167080524849
349.1167292401336
349.1167459511179
349.1167581944844
349.1167669382609
349.1167731185749
349.1168064658236
349.1159986620291
349.1160446031867
349.1161158537506
349.1161843082128
349.1162450154225
349.1162994040843
349.1163492293624
349.1163951301485
349.1164372549171
349.1164753933917
349.1165093294223
349.1165389124078
349.1165641027379
349.1165848338973
349.1166010245176
349.1166127987208
349.1166208028911
349.1166274205698
349.116660569767
349.1158341504899
349.1158885038668
349.1159619090263
349.1160317659798
349.1160944141649
349.1161511071731
349.1162030692509
349.1162507163233
349.116294086879
349.1163329891488
349.1163672945502
349.1163969570866
349.1164220099075
349.1164424741835
349.1164583200817
349.1164697316417
349.1164779397625
349.1164838714325
349.1165171382766
349.1156746236318
349.1157353219393
349.1158091232527
349.1158790779445
349.1159427072586
349.116001028252
349.1160547287159
349.1161039421321
349.1161485186691
349.1161882601428
349.1162230373723
349.1162528980934
349.1162779783121
349.1162983029867
349.1163138799361
349.1163250200628
349.1163325940381
349.1163391124015
349.1163712277971
349.1155190419523
349.1155857034956
349.1156589450222
349.1157282838457
349.1157923217833