/*--------------------------------*- C++ -*----------------------------------*\
| =========                 |                                                 |
| \\      /  F ield         | OpenFOAM: The Open Source CFD Toolbox           |
|  \\    /   O peration     | Version:  2206                                  |
|   \\  /    A nd           | Website:  www.openfoam.com                      |
|    \\/     M anipulation  |                                                 |
\*---------------------------------------------------------------------------*/
FoamFile
{
    version     2.0;
    format      ascii;
    arch        "LSB;label=32;scalar=64";
    class       volScalarField;
    location    "0.05";
    object      T.water;
}
// * * * * * * * * * * * * * * * * * * * * * * * * * * * * * * * * * * * * * //

dimensions      [0 0 0 1 0 0 0];

internalField   nonuniform List<scalar> 
2268
(
272.9999989505306
272.9999987452629
272.9999984751228
272.9999981228106
272.9999976614197
272.9999970500566
272.9999962239552
272.9999950749424
272.9999934034808
272.9999910026137
272.9999849652668
273.0000087955864
273.0764596196983
273.172467750688
273.2688772642132
298.4360107247045
324.8157237813796
340.7557277444081
347.1027698417095
348.7659222755963
349.0719332236455
349.1125714959764
349.1162843484583
272.9999979528736
272.9999977313368
272.9999974285271
272.9999970243704
272.9999964882316
272.9999957733662
272.9999948060038
272.9999934644003
272.9999915271562
272.9999887940818
272.9999820568761
273.0000132334803
273.0833841982122
273.1875704013847
273.5657992913517
307.5965953007293
331.4427160715614
343.6072907126862
347.8427405908947
348.8951691872899
349.0877576117934
349.1138285504476
349.1163069889688
272.9999969556584
272.999996721025
272.9999963909307
272.9999959432821
272.9999953449545
272.99999454561
272.9999934668334
272.999991982353
272.999989868745
272.999986974138
272.999979945337
273.000017174985
273.0951822871947
273.2425046367566
294.4078751647618
319.7201186473562
337.4591006507563
345.6938667487339
348.3521991859094
348.9847827573888
349.0991482315234
349.1147709550795
349.1163014898698
272.9999959619911
272.9999957160375
272.9999953616328
272.9999948751953
272.9999942221402
272.9999933504317
272.999992180588
272.999990588814
272.9999883639553
272.9999854205898
272.9999784328994
273.0000217033129
273.1080787327326
273.3393781348537
302.774925638086
327.800286694881
341.5967604301066
347.0664974230602
348.6759874479171
349.0413731258552
349.1063832690246
349.1153601972513
349.1163513726203
272.9999949661122
272.999994710386
272.9999943342009
272.9999938129286
272.999993111384
272.9999921773432
272.9999909329679
272.9999892617028
272.9999869734172
272.9999840509411
272.9999773143232
273.0000269560384
273.1216971360284
273.5000499557464
309.8840363852378
333.8502210520067
344.3640033681706
347.9152618658756
348.8683135246372
349.0745313657961
349.1106381363912
349.1157997712862
349.1162932279447
272.99999390314
272.9999936375723
272.9999932390051
272.9999926819582
272.9999919311863
272.9999909353331
272.9999896202082
272.9999878799949
272.9999855522825
272.9999826823056
272.999976320522
273.0000324943371
273.1361014434759
273.7205877608344
316.03254636145
338.3144837225172
346.1371959186198
348.4166348735715
348.9772717940365
349.0930759636032
349.113058129485
349.1159708487519
349.1163249994007
272.9999924386809
272.9999921600694
272.9999917329465
272.9999911314962
272.9999903217763
272.9999892558366
272.999987867609
272.9999860692185
272.9999837379103
272.9999809743923
272.9999751405662
273.0000382872784
273.1517447224642
274.0298199232408
323.4367804146879
341.8644270914622
347.2953615566395
348.7128577546611
349.0386679060992
349.1033504583208
349.1143599416216
349.1161089270811
349.1164304114179
272.9999895665622
272.9999892807221
272.9999888374149
272.9999882131945
272.999987380102
272.9999863004609
272.9999849256026
272.9999831964799
272.9999810405191
272.9999785862582
272.9999736019515
273.000044343149
273.1692304176905
274.5805868984831
330.3011215791224
344.4134128946811
348.0192637006307
348.8847809015392
349.0729530105625
349.1090454562987
349.1151624905931
349.116293346084
349.116601383828
349.1173906097334
349.1173497592048
349.1173733729707
349.1174066294403
349.1174462987707
349.1174956600292
349.1175498003615
349.1176057039384
349.1176574290538
349.117704348467
349.1177451970228
349.1177823486799
349.1178152352971
349.1178445979776
349.1178684478726
349.1178867290423
349.1178983655381
349.1179066171567
349.1179227430285
349.1173085757737
349.1173001742699
349.1173262725401
349.1173531686381
349.1173860349721
349.117430821096
349.1174809482603
349.1175345113757
349.1175847307603
349.1176311395473
349.1176713627311
349.1177083562682
349.1177406320918
349.117769323482
349.117791959895
349.1178086635746
349.1178185503068
349.1178270191771
349.1178655565141
349.1172825649578
349.1172890351483
349.117308765581
349.1173235427459
349.1173463065414
349.1173833714021
349.1174279568646
349.1174779428237
349.1175266078442
349.1175722953366
349.117612425755
349.1176492986508
349.1176814613762
349.1177097786677
349.1177319916291
349.1177481364232
349.1177575768968
349.1177664983011
349.1178024153124
349.1172664956647
349.117281389588
349.1172889534757
349.1172899371854
349.1173018117315
349.1173307065522
349.1173694925334
349.1174159169725
349.1174631425636
349.1175082343902
349.1175482823779
349.1175850889396
349.1176171651123
349.1176451534473
349.1176670353297
349.11768279636
349.1176918424048
349.1177012030336
349.1177362265835
349.1172711035395
349.1172824305076
349.117273429852
349.1172577175665
349.1172579438602
349.1172784842544
349.1173113446501
349.1173543027863
349.1174000593596
349.117444344655
349.1174841324687
349.1175207058546
349.1175525016309
349.1175800114458
349.117601493503
349.1176168573539
349.1176256056409
349.1176349811743
349.1176701759358
349.1172875638798
349.1172979017817
349.1172535892293
349.1172190470036
349.1172064244166
349.1172186183079
349.1172459271588
349.1172859290716
349.1173304458027
349.1173740313333
349.1174136833982
349.1174500998081
349.1174817731115
349.1175089238765
349.1175300400916
349.1175449460595
349.117553250171
349.1175628195519
349.117599973907
349.1173276864804
349.1173067066803
349.1172400828871
349.1171824700489
349.1171578091635
349.1171610812782
349.1171821158483
349.1172186833436
349.1172608209137
349.117302911164
349.1173419011002
349.1173777948684
349.1174090915803
349.1174357174113
349.1174564237705
349.117470950162
349.1174790912109
349.1174891648085
349.1175220215947
349.1173629112273
349.117273551623
349.1171885941751
349.1171382200661
349.1171155670138
349.1171198187474
349.1171405652275
349.1171753809933
349.1172149233109
349.1172543150922
349.1172910182186
349.1173246090008
349.1173539345461
349.1173787741509
349.1173983379419
349.1174122749613
349.1174208804324
349.1174295342349
349.1174600740594
272.9999905577909
272.9999902904038
272.9999898763675
272.9999892941623
272.9999885191281
272.9999875181413
272.9999862484103
272.99998465724
272.9999826790886
272.9999803532957
272.9999759343924
273.0000532274183
273.1856585681274
275.400556638825
335.2678069043953
346.3437724455831
348.5659467734872
349.0129310039567
349.0981966411858
349.1131909575528
349.1157085608054
349.1162408681787
349.1165386872644
272.9999887550008
272.9999884914694
272.9999880768987
272.9999874910321
272.9999867140575
272.9999857201799
272.9999844775063
272.9999829490516
272.9999810908224
272.9999789567207
272.9999750974824
273.0000657286421
273.2192238883648
277.7943938199198
338.8706397553102
347.4127881703011
348.8208791764089
349.0663239723938
349.1079519221159
349.1146898348151
349.1158344900628
349.1161301165006
349.1163434305877
272.9999870830462
272.9999868296986
272.9999864264456
272.9999858544678
272.9999850989071
272.9999841410535
272.9999829587484
272.9999815278434
272.9999798205297
272.9999778970514
272.9999745585885
273.0000793235214
273.2580895761207
289.8200197307105
340.0824000797487
347.8492054403652
348.9326557516313
349.0891681481066
349.1118819160654
349.1152463467242
349.1158220141334
349.116004958437
349.1160736591056
272.9999855273715
272.9999852873589
272.9999849021162
272.9999843538747
272.9999836320732
272.9999827238706
272.9999816147384
272.9999802899677
272.9999787331863
272.9999770049156
272.9999741251713
273.0000937849359
273.3022411636109
321.986486820429
343.729109426655
348.3103580264164
349.0059930061756
349.1011146439136
349.1137007331973
349.1154279675394
349.1157504745099
349.1158775927933
349.1159166977717
272.9999840930706
272.999983868342
272.9999835057113
272.9999829880106
272.9999823082454
272.9999814582993
272.9999804295231
272.9999792141506
272.9999778039787
272.9999762563472
272.9999737786587
273.0001090399655
273.3520038049028
325.844534095998
345.1655927286622
348.5813797306155
349.049562568086
349.1075928286088
349.1145507057569
349.115459647135
349.1156560066817
349.1157510202002
349.1157741119325
272.999982781668
272.9999825730705
272.9999822357112
272.9999817525961
272.9999811195789
272.9999803322369
272.9999793863607
272.9999782791962
272.9999770082721
272.9999756257935
272.9999734975155
273.0001250678151
273.4085271116407
328.9971421110042
346.1758965985367
348.7630741308467
349.0764268791872
349.1111622827318
349.1149476360592
349.1154293845425
349.1155583591531
349.1156298296206
349.1156451938831
272.999981591903
272.9999813994336
272.9999810884356
272.9999806417134
272.9999800573365
272.9999793336888
272.9999784698451
272.9999774665858
272.9999763253506
272.9999750923239
272.9999732656931
273.0001418300189
273.4734065238245
331.9078285613116
346.9735459954231
348.8899358536885
349.0930958266201
349.1131160923753
349.1151091845597
349.1153679068242
349.1154594290424
349.1155123353148
349.1155206213606
272.9999805205643
272.9999803436132
272.9999800588438
272.9999796485826
272.9999791125756
272.9999784513014
272.9999776662129
272.9999767605325
272.9999757383044
272.9999746395953
272.9999730724749
273.0001592867675
273.548400514838
334.5110534497027
347.5763116812787
348.9740795287914
349.1029287705533
349.114107630882
349.1151347601831
349.1152819969155
349.1153531880163
349.1153931603344
349.1153998603351
272.99997956407
272.9999794016427
272.9999791421242
272.9999787671777
272.999978277804
272.9999776760337
272.9999769650437
272.9999761497584
272.9999752359861
272.9999742582012
272.9999729154553
273.0001773524964
273.6348939261676
336.8749661564292
348.0278798285894
349.0295962702462
349.1085516595228
349.1145439209832
349.1150690288039
349.1151643706564
349.11522803576
349.1152626452016
349.1152732596697
272.9999787250742
272.9999785761577
272.9999783407048
272.9999779996672
272.999977555023
272.9999770100204
272.9999763692002
272.999975638839
272.9999748261981
272.9999739616495
272.9999728217903
273.0001959573494
273.7350600944538
339.0349234019347
348.3701870477896
349.0651311604115
349.1115786940632
349.1146558603133
349.1149349096901
349.1150120310196
349.1150784470452
349.115116598593
349.1151390300855
272.9999780498809
272.9999779147064
272.9999777042104
272.9999773989267
272.9999770018229
272.9999765174356
272.9999759518601
272.9999753131372
272.9999746106936
272.9999738756728
272.999972965049
273.0002152722629
273.8520324288435
341.0544097027638
348.6282369536011
349.087299684525
349.113070856037
349.1145795026169
349.114745019647
349.1148214799853
349.1148990881616
349.1149498286547
349.1149887338019
272.9999778450675
272.9999777310248
272.99997755908
272.9999773110413
272.9999769917828
272.9999766084555
272.9999761706221
272.9999756908138
272.9999751846237
272.9999747046824
272.9999742634265
273.0002370730156
273.9884277555206
342.788580969327
348.8041276120528
349.0999099499412
349.1136664287365
349.1143972513544
349.1145137382077
349.1145980318556
349.1146917839047
349.1147615616625
349.1148198549622
272.9999798830937
272.9999798325538
272.9999797753402
272.9999797022289
272.9999796242211
272.9999795569348
272.9999795215237
272.9999795461836
272.9999796692153
272.9999800627396
272.9999813184602
273.0002717843727
274.1463407934817
344.3327255352208
348.9242175459482
349.1069400820368
349.1138156555634
349.1141718342504
349.114263724097
349.1143556165817
349.1144653543452
349.1145564292941
349.1146333859188
272.999993761719
272.9999939753933
272.9999943927236
272.9999950457786
272.9999959674813
272.9999972037117
272.999998817557
273.0000008949082
273.0000035621278
273.0000075778135
273.0000161900819
273.0003704138742
274.325503211294
345.6557778551623
349.0022152323899
349.1105462808571
349.1137759928168
349.1139551733721
349.1140286605626
349.114121744289
349.1142411897279
349.1143498681149
349.1144418697967
273.0000684445328
273.000069783769
273.0000722219595
273.0000759571064
273.0000810969186
273.0000877913165
273.0000962508216
273.0001067690511
273.0001198122001
273.0001388883607
273.0001794698317
273.0007627105794
274.5169142307545
346.6730922182746
349.0479323477328
349.1121781231713
349.1136939751705
349.11377493704
349.1138294126897
349.1139140230926
349.1140343880804
349.1141526829722
349.1142483106901
273.0004369849757
273.000442792952
273.0004532876007
273.0004692561877
273.0004910407262
273.0005191240618
273.0005542097555
273.0005973122195
273.0006501859355
273.0007286473501
273.0009017331992
273.0024006848282
274.6826833377646
347.5000202638687
349.0729049040291
349.1128887716483
349.11364538712
349.1136476962498
349.1136758649484
349.1137417747477
349.1138513025163
349.1139696600133
349.1140656133359
273.0021158627131
273.0021375153572
273.0021768694132
273.002236465293
273.0023173090574
273.0024208720868
273.0025494518363
273.0027065541792
273.0028989000623
273.0031943659303
273.0038799200295
273.0088516496662
274.7363973257209
348.647413574948
349.0970875698177
349.113299463554
349.1135949643399
349.1135619870931
349.113562033335
349.1136050236274
349.1136968030037
349.1138059592366
349.1138988293442
273.0090475061015
273.0091168866865
273.0092450500541
273.0094382454665
273.0096991559197
273.0100319139085
273.0104437644441
273.0109471169096
273.0115700975905
273.0125903143018
273.0151142892187
273.0319368256832
274.520847720439
345.6883481930067
348.9349717868415
349.1091946160823
349.1134524538258
349.1134675810867
349.1134558070602
349.1134865282824
349.1135636014615
349.113663338527
349.113752691455
273.0341426608545
273.0343247568358
273.0346717625997
273.0351920079186
273.0358920181902
273.0367817772938
273.0378809102724
273.0392279734521
273.0409370302673
273.0440670457121
273.0526037681329
273.1047823068531
274.2825861074136
342.6113354082182
349.7782740142551
349.299335495162
349.1144283618286
349.1133477210292
349.1133508195446
349.1133789313592
349.1134462993498
349.1135372289565
349.1136229326199
273.1237675842614
273.1243204869303
273.1254187232248
273.1270666117007
273.1292988643493
273.132163510209
273.1357471053519
273.1402077979492
273.1460739128058
273.1583297891506
273.1971816048269
273.4392869463208
275.0621712339604
276.2521038060499
320.7193328309614
344.0703900516429
349.0835154196575
349.1134078962407
349.113246204239
349.1132768056524
349.1133384940524
349.1134237541361
349.1135101223676
341.6147892401001
341.5525136972203
341.5204141166993
341.4691489370384
341.4054918323633
341.3373309577241
341.2779121041607
341.2517021307953
341.3211628906278
341.7487439636928
343.5003017978794
348.321196492969
331.0911036032466
292.4208318099559
335.4355813884903
347.228744374474
349.1233563347169
349.1131428820914
349.1131352797149
349.1131729416009
349.1132358365584
349.1133187722123
349.1134062994629
349.3615418962971
349.3642919576811
349.3682750976594
349.3739443504604
349.3814734361503
349.3910006112227
349.4027841122007
349.4173203051339
349.4336815014722
349.4248530272189
349.1774017714367
347.8790546176842
344.5381207582508
338.5609022772805
344.9170642270699
348.6718015539745
349.1215290816857
349.1129743080515
349.1129891555748
349.1130654140564
349.1131359077835
349.1132208294706
349.1133140444189
349.1081883780926
349.1081639825451
349.1081160815062
349.1080102736094
349.1078221084429
349.107537878909
349.1071545818572
349.1065912392413
349.1052523018648
349.10006848004
349.0794535280301
349.0061135710947
348.768032944845
348.1993087047226
348.3406846366228
349.0453647717212
349.1152206336812
349.1127512022929
349.112891331668
349.1129612877534
349.1130407025855
349.1131264260836
349.1132218357938
349.1110265883175
349.1110582001482
349.1110910749479
349.1111077693092
349.1110901357068
349.1110330563002
349.1109535654514
349.1108932322068
349.1108982980621
349.1111605664676
349.111871287633
349.1123522396766
349.1072963560424
349.0837722477798
349.0372319023801
349.1056362446055
349.1129052005665
349.1126784137829
349.1127776248482
349.1128659937609
349.1129493832859
349.1130355668848
349.1131351528471
349.1110089375915
349.1110418829934
349.1110819095005
349.1111115563261
349.1111137865126
349.1110812384053
349.111023912373
349.1109687971218
349.1109495996676
349.1110076205175
349.1111471555615
349.1112497724814
349.1113361950369
349.1108884569325
349.108673935219
349.1117134363745
349.1124376467495
349.1125497101215
349.112670332609
349.1127712834021
349.1128578823911
349.112941483029
349.1130389936041
349.1109836073722
349.1110177040098
349.1110633230762
349.1111039604554
349.1111240200217
349.1111156105492
349.11108459462
349.1110508721075
349.1110416036718
349.1110883344861
349.1111909870615
349.1113137981822
349.1114907468787
349.1116897571199
349.1118359108668
349.1120821269504
349.1122861701236
349.1124407119814
349.1125705070715
349.1126778345361
349.112764054092
349.1128447454865
349.1129422512748
349.1109534133745
349.1109881409249
349.1110372883926
349.1110865087423
349.1111227698065
349.111137807159
349.1111331293509
349.1111210115179
349.1111214559509
349.1111568985353
349.1112370517902
349.1113454580651
349.1114936287282
349.1116632265915
349.1118312881796
349.1120150591498
349.1121903651365
349.112343009185
349.1124725994896
349.1125792701478
349.1126628493259
349.1127379336064
349.1128291006046
349.1109188900449
349.1109527577913
349.1110020976352
349.1110556495782
349.1111029654943
349.1111364166709
349.111154610909
349.1111640572154
349.1111778040377
349.111211506866
349.1112756189464
349.1113680849738
349.1114895716321
349.1116320963865
349.1117819904884
349.1119404109094
349.1120979569139
349.1122436757524
349.1123691454147
349.1124727575435
349.1125523681536
349.1126239434401
349.1127128387301
349.1108816259834
349.1109130071499
349.1109590103903
349.1110116853344
349.1110638229753
349.1111087419836
349.1111432840989
349.1111697294685
349.1111958867876
349.1112327560232
349.1112897118577
349.1113694900569
349.1114711499611
349.111591837543
349.1117237800896
349.1118582074154
349.1119975585639
349.1121335566551
349.1122531575525
349.1123531019601
349.1124299902314
349.1124973956004
349.1125793134048
349.1108407353029
349.1108679825075
349.1109076474261
349.1109553570571
349.1110064688612
349.1110559309866
349.1111000395618
349.1111383988404
349.1111748009292
349.1112161322536
349.1112694589182
349.1113389346074
349.1114249313081
349.1115272233825
349.1116418362207
349.1117590920742
349.1118834451366
349.1120088981879
349.1121236611375
349.1122217440371
349.1122979702096
349.1123652305236
349.1124453808574
349.1107966158464
349.110818611843
349.1108501354502
349.1108895553097
349.1109350479396
349.1109830842545
349.1110300384531
349.1110741032487
349.1111164619596
349.1111609453537
349.1112124827273
349.1112748814173
349.1113496773497
349.1114372907028
349.1115370254931
349.1116427227561
349.1117546249163
349.111870513127
349.1119820620822
349.1120795429426
349.1121570611172
349.1122243483687
349.1122994626884
349.1107469541241
349.1107633503228
349.1107862858923
349.110816697065
349.1108543532864
349.1108972961125
349.1109425474938
349.1109876822371
349.1110321881581
349.1110777367057
349.1111273818919
349.1111841890689
349.1112504085841
349.1113274539775
349.1114153173185
349.1115116060669
349.1116138487866
349.1117236663681
349.1118337362222
349.111932337122
349.1120125625816
349.1120829464469
349.1121579864845
349.1106912869348
349.1107022211414
349.1107174968215
349.1107391806188
349.1107686243942
349.1108049189945
349.1108457420414
349.1108886456438
349.1109323400971
349.1109771513953
349.1110247610205
349.1110773722259
349.1111372283943
349.1112063435361
349.111285081361
349.1113737179559
349.1114699063667
349.1115752507895
349.1116836823414
349.1117832455284
349.1118663090698
349.1119384610129
349.1120103180406
349.1106265816079
349.1106330399501
349.1106424133595
349.1106577639626
349.1106806174698
349.11071089389
349.1107469318389
349.1107865415154
349.1108281204736
349.1108711769168
349.1109164458442
349.1109654953693
349.1110206091188
349.1110830469231
349.1111546031074
349.1112369497894
349.1113287693485
349.1114300266038
349.1115365801218
349.1116372145154
349.1117228064606
349.1117979132561
349.1118698459629
349.1105524820263
349.1105553299906
349.1105611199254
349.1105723859866
349.1105910009241
349.1106170633423
349.1106493258341
349.1106859212349
349.1107252213369
349.1107663887231
349.1108095712496
349.110855927254
349.1109068689232
349.1109640359152
349.1110298645984
349.1111064370212
349.1111939551267
349.1112907892955
349.1113947144152
349.1114953548762
349.1115820866078
349.111657720133
349.1117269397341
349.1104666283896
349.1104674494418
349.1104718548668
349.1104821192768
349.1104993563285
349.1105236978646
349.1105541138364
349.1105889910107
349.110626816043
349.1106665930151
349.1107081907927
349.1107521503099
349.1107994510621
349.110852071129
349.1109126723064
349.1109836577552
349.1110663336093
349.1111588583208
349.1112598971617
349.111359322171
349.1114460520193
349.1115224702908
349.1115910414111
349.1103701055484
349.11036985551
349.1103748620672
349.1103860822072
349.1104042129397
349.1104290394035
349.1104594890361
349.1104941214201
349.1105315139459
349.1105707189465
349.1106112631472
349.1106531985284
349.1106974760838
349.110746209451
349.1108018278153
349.1108674513131
349.1109449879008
349.1110333552375
349.1111307308577
349.1112274956058
349.1113127517127
349.111387651632
349.1114534604124
349.1102624826586
349.1102626670705
349.1102696692643
349.1102836508188
349.1103044007143
349.1103313370702
349.1103633101621
349.1103989085665
349.1104368958593
349.1104761547659
349.1105159730989
349.1105563060999
349.1105980670031
349.1106431228267
349.1106942223524
349.1107548751591
349.1108275266938
349.1109117697649
349.1110052116895
349.1110987906357
349.1111819563632
349.1112554682613
349.1113196622015
349.1101464418156
349.1101477743297
349.1101576333774
349.1101748930866
349.1101989050354
349.110228608901
349.1102627031651
349.1102998961617
349.1103388167942
349.1103783415688
349.1104177136822
349.1104567660023
349.110496339416
349.1105382161822
349.1105854823619
349.1106419340335
349.1107104546634
349.1107910134484
349.1108806674813
349.1109706707034
349.1110508595686
349.1111213017836
349.111182357451
349.1100221044047
349.11002702236
349.110040270516
349.1100608710776
349.1100878562739
349.1101200053908
349.1101559675535
349.1101943410125
349.1102338385105
349.1102733161101
349.1103119626946
349.1103496412745
349.1103870532413
349.110426271018
349.1104706942847
349.1105243698184
349.1105903837902
349.1106687071745
349.1107556642709
349.110842394217
349.1109191624105
349.1109859867423
349.1110432362919
349.1098966091598
349.1099040588678
349.1099196504148
349.1099421048468
349.109970531428
349.1100036292713
349.1100400497578
349.1100784435717
349.1101175459941
349.110156241619
349.1101937268034
349.1102299556397
349.1102658659829
349.1103038362465
349.1103475371407
349.110400976661
349.1104668219413
349.1105443412218
349.1106288964125
349.1107113725846
349.1107827249508
349.1108437061023
349.1108933500632
349.1097790767563
349.109786861599
349.1097999876943
349.1098184671081
349.1098416521212
349.1098688397897
349.1098993209482
349.1099323781575
349.1099673414452
349.1100036287193
349.1100409534854
349.1100794691012
349.1101199538426
349.1101638862556
349.1102131310958
349.1102692555755
349.1103325535313
349.1104012274724
349.1104716829654
349.1105383648327
349.1105978566266
349.1106541958476
349.1107091505431
349.1166686940407
349.1166171163469
349.1168269389216
349.1173069735555
349.1164687580695
349.1165204649354
349.1167557197452
349.1169680703946
349.1161709050303
349.1162816796319
349.1164604588292
349.1166557512644
349.1160113437426
349.116126983014
349.116294931159
349.116448679379
349.1158521529097
349.1159644476699
349.1161114573654
349.1162554242437
349.1157129445589
349.1158098397834
349.1159365692059
349.1160699939162
349.1155772299086
349.1156569983447
349.115768732948
349.1158938226071
349.1154581586881
349.115523443431
349.115619728628
349.1157303706379
349.1153385591197
349.1153932358259
349.1154804058318
349.1155760116049
349.11522213006
349.115273330606
349.1153544825927
349.1154313731787
349.1150890740857
349.1151447348676
349.1152275751305
349.1152906247735
349.1149336042628
349.1150020390998
349.1150903012515
349.1151446148931
349.1147436439555
349.1148280752986
349.1149289403635
349.1149869833037
349.1145394994029
349.1146420533335
349.1147522856779
349.1148192664915
349.1143173537811
349.1144391690248
349.1145638263455
349.1146530620147
349.1141057461154
349.1142383177682
349.1143625132031
349.1144681844323
349.1139078547388
349.1140398232951
349.1141673901139
349.114285514042
349.1137500486731
349.1138753251092
349.1139896542387
349.1141098798618
349.1136160314759
349.1137272889429
349.1138328718142
349.1139490478537
349.1135183690043
349.1136105468993
349.113692834173
349.1137940546184
349.1134301330059
349.1135013026035
349.1135689285955
349.1136524653555
349.1133657623207
349.1134135438984
349.1134543285146
349.1135140576582
349.1132919706671
349.1133189403241
349.1133447169879
349.113383328361
349.1132309801594
349.1132364491478
349.1132369902649
349.1132523803432
349.1131464378109
349.1131359313786
349.1131251094942
349.1131239180942
349.1130674931636
349.113041114365
349.113010816917
349.1129932618511
349.1129568958436
349.1129219984876
349.1128867882389
349.1128616307776
349.1128492619563
349.1128062633235
349.1127599073309
349.112727876235
349.1127102646967
349.1126667465406
349.1126222725092
349.1125917620728
349.112577217292
349.1125328882119
349.1124850310603
349.1124553846319
349.112420995531
349.1123815169829
349.1123395723687
349.1123166874762
349.1122764345681
349.1122398263955
349.1121985999962
349.1121797403796
349.1121182662063
349.1120878765967
349.1120527761586
349.1120410107249
349.1119741077559
349.1119469715924
349.1119135002731
349.1119051975551
349.1118231377715
349.111800666582
349.1117714836408
349.111767883989
349.1116851495611
349.1116643919333
349.1116359505701
349.1116334606166
349.1115432082958
349.1115248904646
349.1114983840683
349.1114974828171
349.1114087846468
349.1113907809769
349.111364142146
349.1113629508509
349.1112688512852
349.1112520840821
349.1112267771214
349.1112264838712
349.1111267491346
349.1111109942884
349.1110869030599
349.1110886485936
349.1109705978542
349.1109607515589
349.110942802964
349.1109494332937
349.1107874398472
349.1107922719303
349.1107829969574
349.1108046497376
349.1172608652091
349.1170799001798
349.1169923391125
349.1169816226782
349.1170006551968
349.1170297445456
349.1170654217185
349.1171059680545
349.1171465485912
349.1171851785119
349.1172206958832
349.1172526862961
349.117280629403
349.1173043375345
349.1173234805075
349.117337969241
349.1173483430042
349.1173561232818
349.1173797222813
349.1169139757409
349.1168350200805
349.1168163368413
349.116829091982
349.1168556748249
349.1168873316454
349.1169261169445
349.1169669791392
349.1170069168449
349.1170446302986
349.1170792935145
349.1171104315976
349.1171375974493
349.1171605396323
349.1171790043711
349.1171929141765
349.117202735937
349.1172102684924
349.1172391301419
349.1165632294018
349.1165789048463
349.1166187074018
349.1166590225504
349.1166990150119
349.1167411695671
349.1167840090629
349.1168258674246
349.1168658141225
349.1169032204252
349.1169374247048
349.1169679874483
349.1169945378272
349.1170168515682
349.1170347026303
349.1170480245913
349.1170575680442
349.1170643553433
349.1170957801726
349.1163443396086
349.1163687901623
349.1164303568012
349.1164917547807
349.1165459137492
349.1165942049709
349.1166397562275
349.1166827010352
349.1167230407899
349.1167603974199
349.1167942929532
349.1168243549342
349.1168503287646
349.1168720228242
349.1168892522816
349.1169020078937
349.1169107641114
349.1169176614954
349.1169500007752
349.1161674812417
349.1162035020062
349.1162716058308
349.1163378175417
349.1163961851108
349.1164480611832
349.1164957865569
349.1165401336605
349.1165812599888
349.1166189186826
349.1166527476521
349.1166825133763
349.1167080524956
349.1167292401447
349.1167459511286
349.116758194495
349.1167669382717
349.1167731185857
349.1168064658339
349.1159986620397
349.1160446031969
349.1161158537616
349.1161843082239
349.1162450154327
349.1162994040948
349.1163492293729
349.1163951301591
349.1164372549279
349.116475393402
349.1165093294331
349.1165389124185
349.1165641027483
349.1165848339082
349.1166010245286
349.1166127987316
349.1166208029018
349.1166274205805
349.1166605697774
349.1158341505002
349.1158885038776
349.1159619090369
349.1160317659904
349.1160944141748
349.1161511071841
349.1162030692614
349.1162507163337
349.1162940868895
349.1163329891593
349.1163672945606
349.1163969570974
349.1164220099182
349.116442474194
349.1164583200925
349.1164697316523
349.1164779397728
349.1164838714429
349.1165171382875
349.1156746236426
349.1157353219498
349.1158091232629
349.1158790779557
349.1159427072692
349.1160010282625
349.1160547287267
349.1161039421424
349.1161485186794
349.1161882601533
349.116223037383
349.1162528981044
349.1162779783228
349.1162983029971
349.1163138799465
349.1163250200735
349.1163325940487
349.1163391124116
349.1163712278084
349.1155190419627
349.1155857035066
349.115658945033
349.1157282838562