/*--------------------------------*- C++ -*----------------------------------*\
| =========                 |                                                 |
| \\      /  F ield         | OpenFOAM: The Open Source CFD Toolbox           |
|  \\    /   O peration     | Version:  2206                                  |
|   \\  /    A nd           | Website:  www.openfoam.com                      |
|    \\/     M anipulation  |                                                 |
\*---------------------------------------------------------------------------*/
FoamFile
{
    version     2.0;
    format      ascii;
    arch        "LSB;label=32;scalar=64";
    class       volVectorField;
    location    "0.05";
    object      U;
}
// * * * * * * * * * * * * * * * * * * * * * * * * * * * * * * * * * * * * * //

dimensions      [0 1 -1 0 0 0 0];

internalField   nonuniform List<vector> 
2268
(
(0.01926636973084124 -0.009103369987424345 0)
(0.05669672295588718 -0.009238250257814667 0)
(0.09547318482901118 -0.009515579373731903 0)
(0.13569833303536 -0.009958289701012439 7.855290306616034e-24)
(0.1780814781516666 -0.0106002572929943 1.576015769058167e-23)
(0.2235185751717415 -0.01149723611983743 7.885668789859749e-24)
(0.2731712999582884 -0.01274003416264899 7.793042797200842e-24)
(0.3286326690856832 -0.0144809875964353 1.487019052052459e-23)
(0.3922761935136942 -0.01699816139013637 1.291397189828093e-23)
(0.4663629689633708 -0.02077512521743186 3.759459624932125e-24)
(0.5688550842285676 -0.02771952772407629 0)
(0.6621096774782593 -0.03788546599186755 0)
(0.7694228514208348 -0.04731418370790094 0)
(0.8704251071001645 -0.05439528466289485 0)
(0.9702683383041252 -0.07097313862704077 0)
(1.810893361406002 0.05072642372900166 9.028284246820388e-22)
(1.210964298499225 0.05534236905026067 8.08326744677713e-23)
(0.7612728768996084 0.06856541107830261 1.872628662571669e-22)
(0.5388624808675949 0.0526146552305193 2.647391906474363e-22)
(0.3863195349951418 0.03523949532008169 8.068097374148033e-23)
(0.2644782581171303 0.02765699787247598 0)
(0.158842519790021 0.0257352623867439 0)
(0.05613433853279515 0.02656035174692348 0)
(0.0192462577654349 -0.02666916990787923 0)
(0.05665227527042564 -0.02707769131796573 0)
(0.09538740487648112 -0.0278710493113861 0)
(0.1355482556845871 -0.02913150744383067 2.423960749276922e-23)
(0.1778334444456398 -0.03095166426773002 4.888537055099309e-23)
(0.2231177073224317 -0.03348093898291823 2.46576858821811e-23)
(0.2725274791159955 -0.03695839328086481 2.469880372013497e-23)
(0.3275906491416923 -0.04177416971580221 4.834703996074331e-23)
(0.3905852666346796 -0.0486044053375514 4.451697776424294e-23)
(0.4632195372800832 -0.05854550448263648 1.646326871405227e-23)
(0.564592723248421 -0.07508776043594904 0)
(0.6475041482389065 -0.09757726673345847 0)
(0.7449869847106855 -0.119293630761802 0)
(0.8709110502433447 -0.1262807970664191 0)
(1.091991667165059 -0.2069869192012495 0)
(1.298621811754992 0.1604286867285165 1.540503174387942e-21)
(0.9129533131428691 0.1670342423133791 2.413410786616962e-22)
(0.6527499240449136 0.174642600761805 4.507222963800005e-22)
(0.5044570968518384 0.1333563327462935 6.65827069944901e-22)
(0.3771802357974798 0.09599821056789373 2.255216241157637e-22)
(0.2659067929230741 0.07894079332211348 0)
(0.162068789373543 0.07494472395038343 0)
(0.05792779932012678 0.07743425405489468 0)
(0.019116693451478 -0.04440429808939794 0)
(0.0562808408947921 -0.04507572988918415 0)
(0.09474332822370431 -0.04638961874970073 0)
(0.1345829927335555 -0.04847355850607012 0)
(0.1764723976383098 -0.05147836621112126 0)
(0.2212416750874811 -0.05564591233494252 0)
(0.2699453109736596 -0.0613598619131155 0)
(0.3239842008900596 -0.06923812073085318 0)
(0.385439902263404 -0.08032255437333746 0)
(0.4552668955535147 -0.09629031471875626 0)
(0.5535973262747651 -0.1214891037067827 0)
(0.6235510819602156 -0.157128768440087 0)
(0.7024856314593585 -0.2058167741197987 0)
(0.8342694562496619 -0.2527126438105528 0)
(1.400544754241052 -0.1664339493380849 0)
(1.014588575021781 0.1910060921564572 0)
(0.7261141865518451 0.2560165645403845 0)
(0.573689319893158 0.249659479097202 0)
(0.4639175185027785 0.1950874680900867 0)
(0.3585215323433238 0.1490888919806774 0)
(0.2605089780710494 0.1275597324691974 0)
(0.1625888771657266 0.1239886667348884 0)
(0.05949840487938504 0.1303662436810613 0)
(0.01892557077419682 -0.06200822371795837 0)
(0.05573060127102682 -0.06293171889477193 0)
(0.09378848063831134 -0.06474517593306128 0)
(0.1331540427573914 -0.06761690772859269 0)
(0.1744612989925725 -0.07174979135037317 0)
(0.2184771985140557 -0.07746620416205363 0)
(0.2661559012446586 -0.08527167208604834 0)
(0.3187264139914041 -0.09596731964456477 0)
(0.3780005763840713 -0.1108675956657675 0)
(0.444103556889212 -0.1320665328720579 0)
(0.5377734290757868 -0.1642608959899237 0)
(0.5922738348712255 -0.2107845968333502 0)
(0.6492014543784634 -0.2825276368348003 0)
(0.7909613002651052 -0.3737905556209774 0)
(1.151950974055743 -0.02006258159325373 0)
(0.8134542501801189 0.2551456677783162 0)
(0.5987824978867416 0.3321578933591978 0)
(0.5072412932169267 0.3051452507907086 0)
(0.4215142276249708 0.2419421278231859 0)
(0.340434504498445 0.1936435216828123 0)
(0.2546765825194519 0.171952101285182 0)
(0.1645562911140415 0.171144140083058 0)
(0.06253218542058538 0.1846397880402546 0)
(0.01867581225393006 -0.07942682047482644 0)
(0.05500909237697765 -0.08058978367512044 0)
(0.0925361575808681 -0.08287743938805002 -4.390251273991928e-22)
(0.1312831800534811 -0.08649254029628844 -4.429554967826736e-22)
(0.1718345921929766 -0.09168186742668102 0)
(0.2148791065646665 -0.09883349861576457 -4.599026998831282e-22)
(0.2612489561600981 -0.1085477219537024 0)
(0.3119704846139173 -0.1217586396351988 4.821725229971239e-22)
(0.368535348514369 -0.1399547877184952 0)
(0.4302344454135963 -0.165491032836944 4.832019909279795e-22)
(0.5179675638413674 -0.2030028334842131 4.767587849409116e-22)
(0.5558425157027644 -0.2575713438409612 0)
(0.5976825344892697 -0.3440821166343834 0)
(0.7325120654856351 -0.4214526752868635 0)
(0.9810421306792907 0.0603106424900707 0)
(0.6553822103066815 0.3157935661032996 2.110331490973463e-21)
(0.5078763237722925 0.382723328762117 3.670815254362505e-21)
(0.4428514266425111 0.3414687698232673 0)
(0.3885486142906402 0.2773911437378286 0)
(0.323164820948326 0.2300824423553501 0)
(0.2503561595097434 0.2114701333898802 0)
(0.1696358151537054 0.2157015780215364 0)
(0.06802725952141687 0.2413980951163739 0)
(0.01836892451137408 -0.09646080377225821 7.117892644890668e-22)
(0.05412049302762453 -0.0978462700468134 7.066350908583812e-22)
(0.09099480638446393 -0.1005712257118348 -5.307644161653198e-22)
(0.1289852401510566 -0.1048653250432609 -5.361096554614158e-22)
(0.1686167623579866 -0.1110092227858527 0)
(0.210487613186924 -0.1194390942777102 -5.589777408116766e-22)
(0.2552918722518714 -0.1308196511430114 0)
(0.3038341932080271 -0.1461652762704231 -1.980787350880526e-22)
(0.3572502738876334 -0.1670411298886399 -8.185269928287627e-22)
(0.4140628979907352 -0.1959283041507168 6.32274009358598e-22)
(0.4949835658378099 -0.2369678871917291 6.720935419776378e-22)
(0.5162863077214312 -0.2966984212381626 0)
(0.5487360057606525 -0.3909303429103704 2.007962694683585e-21)
(0.6703720699295408 -0.4563498905966389 6.774592921570127e-21)
(0.8382652927168148 0.1295058842211963 -2.842686591358753e-22)
(0.5350197355401691 0.3704739988002255 -7.274915014477111e-22)
(0.4298741342104695 0.4144120406294388 3.747316206298054e-21)
(0.3978529894826981 0.3664726918262997 0)
(0.3592709578849444 0.3020682856736817 0)
(0.3084977429065568 0.2600972560671801 0)
(0.2483047659684656 0.2456000231484396 0)
(0.1797948813074473 0.2568868708702224 0)
(0.07678768370885962 0.3026802554895961 0)
(0.01800050077732578 -0.1129054539702415 8.079536716817908e-22)
(0.05305275392680438 -0.1144828499788171 8.019056646992923e-22)
(0.08914479923086414 -0.1175933820770036 0)
(0.1262327773622677 -0.1224858738132777 0)
(0.1647718534447238 -0.1294653696587477 0)
(0.2052583717576484 -0.1389995393295931 0)
(0.2482345766996543 -0.1517897765268999 0)
(0.2942726940044939 -0.1688840142544986 -9.023016768975648e-22)
(0.3441255903885642 -0.1918440203520176 -9.412051117072186e-22)
(0.3957212336830076 -0.2231535937732219 0)
(0.4691403484257043 -0.2658852713229613 0)
(0.4745160601948222 -0.3285725219148979 0)
(0.5016936200975644 -0.4265931440722099 3.046531693679051e-21)
(0.6082262900986506 -0.4784848118456222 6.535263785361329e-21)
(0.700975839109156 0.2145809448666212 -7.710884845230834e-22)
(0.4343141861158613 0.4162647435834233 -3.616140044847824e-21)
(0.3757671976023767 0.4354908518683979 0)
(0.360671591781763 0.3792238354445054 0)
(0.3343792590997096 0.3210593602360966 0)
(0.2960106701428718 0.2837666081690678 0)
(0.2489837871681544 0.2736172580264551 0)
(0.1970247499008307 0.2934983675185228 0)
(0.08718572761376898 0.3697494059553838 0)
(0.01754872639837836 -0.1309707054063989 0)
(0.05173528414920146 -0.1327471965676407 0)
(0.08685799542683877 -0.1362578401035544 0)
(0.1228366192372797 -0.141764835409788 9.016132534762027e-22)
(0.1600449193254558 -0.1495887414001182 1.833968591204592e-21)
(0.198867456155709 -0.1602111491746916 9.396268590727593e-22)
(0.2396867909383084 -0.1743384142639155 9.700675712035124e-22)
(0.2828459082315403 -0.1929965057206118 1.009913603247395e-21)
(0.3287163610825263 -0.2176623725024168 0)
(0.3750349808614967 -0.250642151721626 0)
(0.4403792750531275 -0.2934467147307195 0)
(0.4303387613827491 -0.3567178249768154 0)
(0.4544622906214574 -0.4554191252701712 -2.680717913205655e-21)
(0.5449270974206945 -0.4933682520630162 -3.891946862922397e-21)
(0.5075737025615781 0.2942582206306883 2.906536330095097e-21)
(0.3547241187862223 0.4500908027801661 9.82091317596506e-21)
(0.3335524846432859 0.4432425433603225 5.674314440335355e-21)
(0.3294605192611995 0.3873836397690715 5.402731532263542e-21)
(0.31201973031129 0.3344225104167656 9.937911517303336e-21)
(0.2851503476761033 0.3014437487740652 4.653829418758068e-21)
(0.2515547553112993 0.2948982984176091 0)
(0.2209252154744817 0.3265755002438491 0)
(0.09351418028564187 0.4513545861618797 0)
(0.01308908167693184 -0.005172374754444937 0)
(0.03634672899361479 -0.003993209229097026 1.82255525325109e-21)
(0.05290322459245408 -0.002394247172210951 2.724503610264692e-21)
(0.06230322838033173 -0.001001513982334311 2.732418357041374e-24)
(0.06605451657888198 -3.317616441325732e-05 1.739906500183664e-21)
(0.06592703846233258 0.0006217261538570143 1.744311670180603e-21)
(0.06335748829415513 0.001021049432826517 0)
(0.05931731380730482 0.001249831401551136 0)
(0.05445872424050884 0.001371608609538932 4.402114986761383e-21)
(0.04918845108370495 0.001427296024927091 1.334726217020319e-21)
(0.0437534467542481 0.001443947948120219 -2.391085723172264e-21)
(0.03829652414734364 0.001438552583139906 -2.106849353486015e-21)
(0.03289552491525777 0.001421680437495678 -1.820971968643337e-21)
(0.02758795907050039 0.001400006575977003 0)
(0.02238584458459483 0.001377771390754546 0)
(0.01728497938904966 0.001357676024701566 -1.033012539942735e-24)
(0.01227087728290563 0.001341416375483692 1.381937810578269e-21)
(0.007324849083911445 0.001329814158586057 8.288406827579206e-22)
(0.002426057720167433 0.001321394121243217 2.02658688265362e-24)
(0.01378602767171523 -0.01588186856681695 0)
(0.03811988424057255 -0.01225035826180792 1.857602961930314e-21)
(0.05505569176162491 -0.007297479482010554 2.779039614780633e-21)
(0.0643380450116379 -0.003045272553652278 8.15889567990256e-24)
(0.06781845555047351 -4.357485213933327e-05 1.76386050944017e-21)
(0.0674239701974943 0.001932314862932121 1.758644344162769e-21)
(0.06461096206693977 0.003124044065455133 0)
(0.06037166744409302 0.003801850635928344 0)
(0.05534973301306176 0.004159254055740014 0)
(0.04994244781724008 0.004319831342452039 -2.67284333598486e-21)
(0.04439032673077691 0.004364457998929662 -2.393002028260937e-21)
(0.03883121870480725 0.004343828518872648 -2.107928902965679e-21)
(0.03333947269954265 0.004289500340338617 -1.821587570745594e-21)
(0.02795009963270646 0.004221393850240038 0)
(0.02267318807886681 0.004152167534471229 0)
(0.0175029474457915 0.004089889984708057 -3.135685057749769e-24)
(0.01242344731803478 0.004039651166414541 1.380024669982329e-21)
(0.007415031220643731 0.004004380308154458 8.329733268501724e-22)
(0.002450348151134732 0.003969629965499523 6.164331949354837e-24)
(0.01483987268019305 -0.02723413970458886 0)
(0.04056005892158058 -0.02074387446302466 9.532771982351072e-22)
(0.05765238108437223 -0.01211900286808787 1.435469281455296e-21)
(0.06639068214981705 -0.004917132741610033 0)
(0.06922901513890138 0.0001443223274126998 0)
(0.06831648514056157 0.003389092756454883 0)
(0.06513770630008374 0.005325501924326067 0)
(0.06066365878588812 0.006420238077946048 0)
(0.0554958844141376 0.006991724290632309 4.413322375363566e-21)
(0.05000019785097763 0.007243394366563992 -1.33516012907239e-21)
(0.04439673582589481 0.0073072791735378 -4.776865958442146e-21)
(0.03880951143562068 0.007265802751013501 0)
(0.0333042361016881 0.007170348824049982 0)
(0.02791060338024005 0.007053377167070862 0)
(0.02263535817082476 0.006935534509052436 0)
(0.01747056918014536 0.006829995087672811 0)
(0.01239889182292218 0.006745109651915749 1.378019819412519e-21)
(0.007399995458228165 0.006686005544971065 8.237360314870817e-22)
(0.002445332066774707 0.006627651288799896 0)
(0.01656532116281789 -0.03959707659506712 0)
(0.04445949055735936 -0.02969149872846059 1.335142017276139e-21)
(0.06170668461135581 -0.01678640148629611 1.736352798314606e-21)
(0.06952169628245886 -0.006406041945215996 0)
(0.07134059904558761 0.0006631205989480735 0)
(0.06962317163404666 0.005082402785035834 0)
(0.06589852388076199 0.007682366867790038 0)
(0.06108012596048154 0.009141098974770685 0)
(0.05570011238835158 0.009887111646223024 8.842667008498483e-21)
(0.05007694042436064 0.01020492862684645 5.339206674845674e-21)
(0.04440000954379205 0.01027301813673166 -2.384461124023018e-21)
(0.03877296173050004 0.01020121476730635 -2.097062511379633e-21)
(0.03324895427231379 0.01005856630091698 -1.810238501509371e-21)
(0.02784995765412423 0.009888804188321739 0)
(0.02257786845342012 0.009719793331588988 0)
(0.01742166375552973 0.00956934303457632 -8.877487730803529e-23)
(0.01236198980871909 0.009448773203599284 5.980146247346266e-22)
(0.007377267898151887 0.009365101960669839 4.100541581618141e-22)
(0.002437714940170412 0.009282333894086574 0)
(0.01919458432451547 -0.05300305321624795 0)
(0.05008387269931393 -0.03930265255227008 1.070305384325615e-21)
(0.06742320712042343 -0.02112415936008684 1.916507620099042e-21)
(0.07376684508426819 -0.007290713544839929 1.263609362268667e-22)
(0.07410508659138487 0.001666498325949903 0)
(0.07129535038420731 0.007103336778172061 0)
(0.06685981324067967 0.01024887648961704 0)
(0.06159891018339449 0.01199538244041739 0)
(0.05594690103322197 0.01286037407295173 4.433736225149058e-21)
(0.05016344458113883 0.01321183621258816 1.33507338578769e-21)
(0.04439465316970467 0.0132641529338565 -2.380744732542706e-21)
(0.03871802937631458 0.01314948895644012 -4.182525728806393e-21)
(0.03317123012321118 0.01295171778142045 -1.803722558776024e-21)
(0.02776647073647926 0.01272411509222653 1.519074142650591e-21)
(0.02249949386089945 0.01250071002195823 0)
(0.01735534441419481 0.01230329858341094 -1.141671861335716e-22)
(0.01231210828833962 0.01214576448335298 -2.262743753930902e-22)
(0.007346513197145858 0.01203671937672744 -1.124700885216516e-22)
(0.002427351726345094 0.01192940715344632 0)
(0.02396111240428436 -0.06869380880860447 0)
(0.05771426325007756 -0.04993883226026589 5.794987184032008e-22)
(0.07508802706988256 -0.02484454883640061 1.372001371059514e-21)
(0.07914787984834448 -0.007313884783390315 -4.529484340651423e-23)
(0.07744806902743104 0.003308534739845578 0)
(0.0732636864836814 0.009538876153414238 0)
(0.06797334289037837 0.01309228888658488 0)
(0.062187399312973 0.01499652061146492 -1.635038419058676e-22)
(0.05621551197300739 0.01592394651729432 -1.81299450558472e-22)
(0.05024752182755806 0.01627312030862436 -5.342504341624217e-21)
(0.0443728320602278 0.01628568861480772 -4.56005332086974e-21)
(0.03863971396356709 0.01611294753427155 -3.975782637307752e-21)
(0.03306785366148862 0.01585039490237579 -1.796433514740022e-21)
(0.02765806710637553 0.01555878464626112 1.511882115276286e-21)
(0.0223988904841563 0.01527703887893821 0)
(0.01727074932404073 0.01503015543824478 0)
(0.01224870875239583 0.01483409238290816 -1.380868047241353e-22)
(0.007307453767121561 0.01469874697483779 -3.202443812411261e-22)
(0.002414163162320577 0.01456659063334851 -1.824895443104373e-22)
(0.03962114027872793 -0.09688567046689911 0)
(0.06890656213765048 -0.06204452276888999 2.395208495696544e-21)
(0.08518258274316885 -0.02755853498865315 3.598561126535141e-21)
(0.08564605774040382 -0.006232431186484992 -1.737185134132098e-22)
(0.08124804931434064 0.00573054871856441 0)
(0.07544239030290685 0.01245678680007027 0)
(0.06917324743992079 0.0162065249782331 0)
(0.0627985789730154 0.01816704626765606 -2.002474246714271e-22)
(0.05648718965374534 0.01909355654802125 -2.184562323473407e-22)
(0.05031565891407747 0.01939735901141615 -2.672095302113459e-21)
(0.04432550304709342 0.01934283745036059 -2.142107999351162e-21)
(0.03853225748004142 0.01909475801839826 -3.92533491603235e-21)
(0.03293515206197016 0.01875643165069448 -3.576347841589422e-21)
(0.02752239466902688 0.01839376441397135 0)
(0.02227455420182487 0.01804914353613584 0)
(0.0171669287514911 0.01774988676878552 0)
(0.01217121440681194 0.01751347782093151 0)
(0.007259789025534383 0.01735076732338865 -2.157445570773352e-22)
(0.002398099928984337 0.01719335013180877 -2.151225433591073e-22)
(0.1042385363186347 -0.1319989638163621 -2.231154782778908e-21)
(0.09470526462542461 -0.06937411536953092 1.73870130536252e-21)
(0.09941243934657351 -0.02725699727207549 4.731425863559213e-21)
(0.09329414358623477 -0.003728728164959803 0)
(0.08535884147144229 0.009051548984809917 0)
(0.0776998894759855 0.01591114268246369 0)
(0.07039120844278272 0.0196268541226475 0)
(0.06340702147111973 0.02152776914414684 0)
(0.05673249291321616 0.02236798583839371 4.484431039304447e-21)
(0.05034869874329249 0.02257558819717831 1.337411791997044e-21)
(0.04424058990399785 0.02242388917181526 -2.369127456771528e-21)
(0.03838779436812727 0.02208182741502226 -2.071414698974548e-21)
(0.03276796278520159 0.0216559941303388 -1.780755058761316e-21)
(0.02735605846520121 0.02121484348195765 0)
(0.02212426029958546 0.02080264934203794 2.556778128081745e-22)
(0.01704244589257672 0.02044807300293078 2.52432776465339e-22)
(0.01207873468866051 0.02016951454055832 6.698992566590049e-22)
(0.007203032836664992 0.01997841813050188 6.484823751491086e-22)
(0.002378959628167697 0.01979546801538627 2.475341306929825e-22)
(0.01694628531612132 -0.1540748562532612 0)
(0.04997024283844328 -0.1560689219178076 0)
(0.08380734441917333 -0.1599822694488305 0)
(0.1183514071736926 -0.1660899487625166 1.189769578309825e-21)
(0.1538902273423561 -0.1747098842043108 2.436752327928044e-21)
(0.1907019767353456 -0.1863113420485828 1.260474519746049e-21)
(0.229026437512299 -0.2015661252525534 5.442300421496822e-36)
(0.2690133771618554 -0.2214200839494665 -5.878169608346356e-36)
(0.3107076167438055 -0.2471899628091904 0)
(0.3522148809715765 -0.2807805379020071 -1.665892299531215e-21)
(0.4096200533073963 -0.3233694715483366 -1.882454955529768e-21)
(0.3849192003747519 -0.3838111435854036 1.130398029566231e-21)
(0.4084685261922668 -0.4762135831401267 -1.849517678086967e-21)
(0.4821604058191232 -0.493759028255451 -2.833708487438718e-21)
(0.3557798615175294 0.3921636437791168 1.919379725345527e-20)
(0.2777209200719551 0.4744079780947499 2.190217110904739e-20)
(0.2786648602193089 0.443962109304037 7.45024664799378e-21)
(0.2833681669162463 0.3909926097952696 6.396756906241841e-21)
(0.2793860037473878 0.3458044962910998 1.128498290931157e-20)
(0.2706227968420898 0.3164452272863284 5.149441110767693e-21)
(0.2638560834350044 0.3074732395991678 -4.954604718682342e-21)
(0.2912675371599562 0.3306926951148824 -5.129195010913442e-21)
(0.3511700078370946 0.4239029275643788 0)
(0.01585756205270179 -0.1872789072924366 0)
(0.04679873385030774 -0.1895596614826545 0)
(0.07836210713288069 -0.1939900602193332 0)
(0.1103775905470872 -0.2008638558688115 0)
(0.1429995204487506 -0.2104810571017694 0)
(0.1763395819091283 -0.2232722825956504 0)
(0.2104278401329451 -0.2398291912601301 -1.678280736574564e-21)
(0.2451501549714226 -0.2609393319709125 -1.791459127733704e-21)
(0.2802426461035307 -0.2876224107311514 0)
(0.3135384194029522 -0.3211379226382999 -2.160419852545688e-21)
(0.3599850344324324 -0.3628373494826555 -2.466580385322468e-21)
(0.3222210198631608 -0.4170121848932903 1.450454007713179e-21)
(0.3497584943583787 -0.5014546435782992 2.075165142704771e-21)
(0.3864648609630769 -0.4849838834868556 0)
(0.02973853343957786 0.4175244884187246 9.050420578565446e-21)
(0.1668330161935795 0.4656024985615147 5.244202044533096e-21)
(0.2163830448331228 0.4284253451812738 0)
(0.2368098211472084 0.3836754971527737 0)
(0.2460025392572885 0.3460520981649041 0)
(0.2511332801029245 0.3184243707707323 0)
(0.2585482565293983 0.301229886308935 -4.443055254977247e-21)
(0.2807959510711732 0.2938930033581021 -3.956022392796645e-21)
(0.3307557963161943 0.2765457583157158 0)
(0.01467905429711595 -0.2174768394946009 0)
(0.04335554581976184 -0.2199162221046234 0)
(0.0724718654261424 -0.224620904712745 -3.451906200471062e-21)
(0.1018110647782817 -0.2318806195793135 -3.5124629095808e-21)
(0.1314180788902359 -0.2419534873587532 0)
(0.1612765193923828 -0.2551977670428698 0)
(0.1912703138589686 -0.272085587083067 0)
(0.2211242078618965 -0.2932112481875788 0)
(0.2504224342448783 -0.3192886537919539 0)
(0.2768725468878033 -0.3511131412774208 0)
(0.3149941512336667 -0.3894045587334518 0)
(0.2700793295349483 -0.4370230375611721 0)
(0.3014771911135655 -0.5148538549793554 0)
(0.3148396182117718 -0.4121357742021816 0)
(-0.004201291894956133 0.3196569376919869 0)
(0.1099992774441728 0.4130482891308052 0)
(0.1715190509988508 0.3968130090995668 6.650969619825173e-21)
(0.1998004973792536 0.366760746588602 5.721923083795257e-21)
(0.2159761356802216 0.337460016336859 0)
(0.2269169566986452 0.3116492717885608 -8.992294669444816e-21)
(0.2373198253707696 0.2886483515589244 -7.968714555076661e-21)
(0.2513638305982601 0.2654026483981325 0)
(0.2762333147994803 0.2313060446806418 0)
(0.01345215806156765 -0.245332166499137 0)
(0.03976490353176753 -0.2478519252988824 0)
(0.0663578459807716 -0.2526699525024778 -9.851269054380249e-21)
(0.09298282738506901 -0.2600625622617408 -1.002691281399403e-20)
(0.1196013772700274 -0.2702369876099354 0)
(0.1461078827194835 -0.2834701961240922 0)
(0.1722972329839866 -0.3001105737684228 0)
(0.1978157024697343 -0.3205691353939547 0)
(0.2222066857472785 -0.3452951429914317 0)
(0.2432266579241444 -0.3747213713683945 0)
(0.2750398819733921 -0.4090382481413384 0)
(0.2270309061584813 -0.4505693469320287 0)
(0.2612347583638706 -0.5224703458188046 0)
(0.2820757936263968 -0.1370895131399391 0)
(0.07673198610313496 0.2702072698703101 0)
(0.1086246007223428 0.3625897071333418 0)
(0.1508781108608516 0.3645466301132505 4.943015789545149e-21)
(0.1753758783188391 0.3472161013303086 4.738210520273077e-21)
(0.1911213686383582 0.3251629143851704 0)
(0.2025882055289438 0.3020983298547129 -2.018794123044874e-20)
(0.212224539874722 0.2783176514810571 -1.818172845023706e-20)
(0.2217284693647454 0.2523307490577968 0)
(0.2322098360106685 0.2204990145679433 0)
(0.01221613858710685 -0.2707782273930383 0)
(0.03614120473602669 -0.2733097049159302 0)
(0.06021457936720652 -0.2781052803841672 -6.596832117046202e-21)
(0.08417214760512193 -0.2854245492847932 -6.713029115062833e-21)
(0.1079168835400484 -0.2954226867636514 0)
(0.1312877575735668 -0.3082980737454912 0)
(0.1540353598158106 -0.3242867472870907 0)
(0.1757851214789759 -0.343644972639662 0)
(0.1961057151818363 -0.3666166360399113 0)
(0.212898819976309 -0.3933811037948463 0)
(0.2398666271781176 -0.4237956716223165 0)
(0.1913280275390915 -0.4599953641223996 0)
(0.2271927695682543 -0.5270181827774669 0)
(0.2814560691557428 -0.0137945285239123 0)
(0.1312511306965476 0.267692433226586 0)
(0.1232605552747917 0.3376481834045861 0)
(0.1435604740367144 0.3431576191997485 0)
(0.1589257097401308 0.3316716097882094 0)
(0.1708247439586637 0.3140963853813453 0)
(0.1801749313991571 0.2936742098478057 -1.08348960955853e-20)
(0.1877029992920491 0.2712007552103508 -1.000571389335557e-20)
(0.1937565493275574 0.2462630543006498 0)
(0.1974416567029614 0.2175686250256576 0)
(0.01100153791081136 -0.2938205484090101 0)
(0.03257425224308533 -0.2963107309518233 0)
(0.05419192326239373 -0.3009810219629359 0)
(0.07558753760078669 -0.3080748192013549 1.716139142692015e-20)
(0.09662687936749099 -0.3176996023437605 1.760908174849772e-20)
(0.1171199540120722 -0.3299849706832874 0)
(0.1368043914771383 -0.3450738491615883 0)
(0.1553197837737055 -0.3631025521626829 0)
(0.1722912436327758 -0.3841685786737559 0)
(0.1858053037232568 -0.4082906036463408 0)
(0.2089589354519658 -0.4351418764663607 0)
(0.161523335513423 -0.4668179554747771 0)
(0.1979578354029838 -0.5300010023687217 0)
(0.2556832023904224 0.07188301793911457 0)
(0.1418966742895939 0.2907756187529482 0)
(0.1276271838286798 0.3324743979683015 0)
(0.1365383229834151 0.3326603397651809 0)
(0.145304569910505 0.3218019604166095 0)
(0.1530601156270934 0.306167382198625 2.345220334987982e-20)
(0.1597077554610727 0.2876081996807371 2.280690405613576e-20)
(0.1648703074466144 0.2667829323568899 0)
(0.1683483214039176 0.2438033557567108 0)
(0.1690098931123876 0.2184467047359433 0)
(0.009830518885269835 -0.3145171000945202 0)
(0.02912972282623678 -0.316927815352364 0)
(0.04839709923107679 -0.3214007776042397 0)
(0.06737286553999423 -0.3281658381504341 1.852490265488684e-20)
(0.08590257318152351 -0.3372900140538229 1.897896029752644e-20)
(0.1037863107176466 -0.3488469087732488 2.240208453087281e-20)
(0.1207685323893338 -0.3629073992521673 2.332296366026817e-20)
(0.1365210360150816 -0.379520851927114 0)
(0.150734045425893 -0.3986875174186233 0)
(0.1616855989162114 -0.4203328736355186 2.753404331176759e-20)
(0.1817302854771716 -0.4440420987008194 2.944564737554321e-20)
(0.1364349858362613 -0.4719246799737486 0)
(0.172481762017278 -0.5321038790557321 -3.606563156647418e-20)
(0.2248519935185859 0.1256077739235246 1.580940410624777e-20)
(0.1345506526166945 0.3113263629144343 1.355639951891314e-20)
(0.1221444883105068 0.3338283312419165 0)
(0.1270706060141226 0.3282947100022888 0)
(0.1317679976615475 0.316354636336183 0)
(0.1364685543030582 0.3013368771816493 2.119039543523503e-20)
(0.1406897360962329 0.2839210904941611 4.483292522779657e-20)
(0.1438260015563887 0.2645648388047087 2.294949297773116e-20)
(0.1455068950344363 0.2435346086970504 0)
(0.1447431927235785 0.22102173030768 0)
(0.008717789624085865 -0.3329630079790562 0)
(0.02585164379085323 -0.3352691302571091 0)
(0.04289994733261204 -0.3394993083151001 0)
(0.05961732549314449 -0.345873390587279 0)
(0.07584171296287534 -0.3544260797176482 0)
(0.09137597640419269 -0.3651879995066318 2.378873707123362e-20)
(0.1059825402180606 -0.3781774245063573 2.468224527799397e-20)
(0.1193724467846844 -0.3933843389819891 0)
(0.131297983655593 -0.4107486071748745 0)
(0.140221024209117 -0.4301466753311218 2.86374204062043e-20)
(0.1576489474149885 -0.4511306176763734 3.03631782652419e-20)
(0.1151688992530002 -0.4758214901618792 0)
(0.1500629585562927 -0.5335331958438907 -3.602654004060259e-20)
(0.1947254840630068 0.1640505891909675 2.715244543116916e-20)
(0.1209730124875548 0.3253763151427846 1.634116602774499e-20)
(0.1118062948102885 0.3362710871716627 0)
(0.1153004501757707 0.3268223496435703 0)
(0.1177575273589669 0.3138297978571451 0)
(0.1203425987989412 0.2988987446220722 0)
(0.1227119919920928 0.2822066516959091 2.237325874898008e-20)
(0.124296622175853 0.2640120275493331 2.170392248025029e-20)
(0.1247577726628013 0.2445877709322437 0)
(0.1232872745310688 0.2242201979797699 0)
(0.007671867558024101 -0.3492772290071763 0)
(0.02276591874186306 -0.3514644176403858 0)
(0.03773968372351755 -0.3554279321962006 0)
(0.05236675902801316 -0.3613812299462607 0)
(0.06648628489884603 -0.369334496558048 0)
(0.07991170838179312 -0.3792870871633028 0)
(0.09242866936111574 -0.3912209894808524 0)
(0.1037881472144408 -0.4050881818425562 0)
(0.1137967417437053 -0.4207941942836382 0)
(0.1210878368515079 -0.4381936650215365 0)
(0.1362528287257358 -0.4568362980214736 0)
(0.09702749601240475 -0.4788330130822622 0)
(0.1301756672954467 -0.5344265792084314 0)
(0.1667602864609629 0.194740980014932 0)
(0.1060525303408302 0.3347227461023976 0)
(0.09935983634270139 0.3383676828208939 0)
(0.1020684344168846 0.3267537217860922 0)
(0.1032584910273236 0.3130874176495462 0)
(0.1044609094380398 0.2981761087042769 0)
(0.1054817433332058 0.2819797272047234 0)
(0.1059352149635673 0.2646515923850266 0)
(0.1055814105335987 0.2464384086865021 0)
(0.1037688513275461 0.2276090317272169 0)
(0.006696389855644894 -0.3635914339270404 -8.334641271007871e-37)
(0.01988410938184213 -0.3656538139459936 0)
(0.03293177478670066 -0.3693434005530031 0)
(0.04563442763792591 -0.3748704261263368 0)
(0.0578382038458411 -0.3822273220981338 0)
(0.06937133211249367 -0.3913918889533897 0)
(0.08004414637105271 -0.4023226930178044 0)
(0.08964489733178962 -0.4149495744591665 0)
(0.09802572676710194 -0.4291617240411231 0)
(0.1039781895503229 -0.4448085309318437 0)
(0.1171411070880227 -0.461455707949809 0)
(0.0814526144578013 -0.4811781207597466 0)
(0.1123956343206239 -0.5348930632598924 0)
(0.1400562236022384 0.2205038300808423 0)
(0.0913700319630658 0.3413372679806571 0)
(0.0859548367411344 0.3398471388332245 0)
(0.08820583705600318 0.3273434099462045 0)
(0.08858825339572039 0.3135044766785328 0)
(0.08878715072967493 0.2986894258025434 0)
(0.08880082122525408 0.2828605732125182 0)
(0.08842826341353704 0.2661510669113206 0)