/*--------------------------------*- C++ -*----------------------------------*\
| =========                 |                                                 |
| \\      /  F ield         | OpenFOAM: The Open Source CFD Toolbox           |
|  \\    /   O peration     | Version:  2206                                  |
|   \\  /    A nd           | Website:  www.openfoam.com                      |
|    \\/     M anipulation  |                                                 |
\*---------------------------------------------------------------------------*/
FoamFile
{
    version     2.0;
    format      ascii;
    arch        "LSB;label=32;scalar=64";
    class       volScalarField;
    location    "0.25";
    object      alpha.water;
}
// * * * * * * * * * * * * * * * * * * * * * * * * * * * * * * * * * * * * * //

dimensions      [0 0 0 0 0 0 0];

internalField   nonuniform List<scalar> 
2268
(
1
1
1
1
1
1
1
1
1
1
1
1
1
1
1
1
1
1
1
1
1
1
0.9993378601963371
1
1
1
1
1
1
1
1
1
1
1
1
1
1
1
1
1
1
1
1
1
1
0.9991098588960493
1
1
1
1
1
1
1
1
1
1
1
1
1
1
1
1
1
1
1
1
1
1
0.9990938077533849
1
1
1
1
1
1
1
1
1
1
1
1
1
1
1
1
1
1
1
1
1
1
0.999222109948898
1
1
1
1
1
1
1
1
1
1
1
1
1
1
1
1
1
1
1
1
1
1
0.9999285153038088
1
1
1
1
1
1
1
1
1
1
1
1
1
1
1
1
1
1
1
1
1
1
1
1
1
1
1
1
1
1
1
1
1
1
1
1
1
1
1
1
1
1
1
1
1
1
1
1
1
1
1
1
1
1
1
1
1
1
1
1
1
1
1
1
1
1
1
1
1
-1.080737806862579e-33
-1.74038788401657e-32
-1.270750793172342e-31
-6.29297852396151e-31
-2.64443841552607e-30
-4.957307193445346e-31
-1.630212696670327e-32
-3.098096234483795e-34
-2.802474329852536e-36
-7.186238360036764e-38
-1.800907188211493e-39
-3.719903995265743e-41
-6.16542161879062e-43
-9.092535783117422e-45
-1.117048101217212e-46
-1.065415439851632e-48
-7.269606006113057e-51
-3.124064712328977e-53
-6.275815244508347e-56
-1.446440612493592e-31
-1.831304641226149e-30
-1.036124787910894e-29
-3.429036350980289e-29
-5.798134355954094e-29
-9.441509048470056e-30
-4.404565459741314e-31
-1.170416593634612e-32
-1.565921280974941e-34
-5.187315734038051e-36
-1.664590011072808e-37
-4.379499191864386e-39
-9.283692096236558e-41
-1.715884658423731e-42
-2.600251720770049e-44
-3.030454665159286e-46
-2.513831853723792e-48
-1.308075294737532e-50
-3.165480496261715e-53
-6.773756295361524e-30
-7.06316639764937e-29
-3.186316824533528e-28
-7.156845377604404e-28
2.814146836155925e-30
8.376120814702198e-31
-3.341493784252255e-30
-1.756112188123193e-31
-3.476761172083448e-33
-1.472656362482489e-34
-5.914868435739927e-36
-1.907410517033741e-37
-4.837899696025186e-39
-1.042431204108159e-40
-1.804585782993047e-42
-2.376109113465611e-44
-2.210032080780651e-46
-1.282115521170514e-48
-3.443368118368269e-51
-1.5682373561212e-28
-1.151781478520463e-27
-2.607375525549172e-27
1.560769281294526e-26
7.951017669880151e-25
9.618233785193169e-25
3.898449793469759e-29
-1.25261986535693e-30
-3.980859877192155e-32
-2.221852563692691e-33
-1.153175688783792e-34
-4.69878201546122e-36
-1.466952719596345e-37
-3.771587574413918e-39
-7.63242622384656e-41
-1.157462046023852e-42
-1.227690185017788e-44
-8.05787546931993e-47
-2.431729159010167e-49
-1.707893095815134e-27
3.407514120724283e-43
4.580945032354303e-25
2.613789687743582e-22
7.378639261140955e-21
4.999736773122762e-20
1.43957058192574e-23
2.29360691633374e-29
-1.022462417093893e-31
-1.906456912466465e-32
-1.318499251880492e-33
-7.064821101332781e-35
-2.825790530591997e-36
-8.96872055104088e-38
-2.186989655380601e-39
-3.927907640842563e-41
-4.868659536565291e-43
-3.691334283254199e-45
-1.273713057286713e-47
-6.423769164868064e-44
4.156471123136768e-25
4.665545402014759e-22
6.629215324177307e-20
1.358948549779045e-18
1.300763399820359e-17
3.455253627887295e-19
3.38355461172001e-23
8.345304588013827e-27
-2.744111103131583e-32
-8.416753735699019e-33
-6.308164042866619e-34
-3.445188070083917e-35
-1.424234390466466e-36
-4.373951874465175e-38
-9.649365759240849e-40
-1.4391553324023e-41
-1.289944440492477e-43
-5.185775085224176e-46
3.471161561178164e-25
4.084518672049548e-22
2.044966936891778e-19
5.044432633194481e-18
2.476138837900093e-17
9.168476491925326e-17
8.893108834331131e-17
9.340700631653751e-19
7.494265275376281e-24
1.675796847307037e-30
-2.184378852078862e-32
-2.754833307264701e-33
-2.350452942633113e-34
-1.406141718102704e-35
-5.876543042535902e-37
-1.679816732280192e-38
-3.123994892860314e-40
-3.391462233026598e-42
-1.617099317858296e-44
3.626290113850052e-25
2.714309140063104e-18
3.421513974582392e-16
3.47258985395317e-15
1.380115520385169e-14
9.171268076079656e-17
1.055427719740477e-15
1.342032088540461e-16
9.286511008319862e-34
3.650658290533194e-36
-2.249598377654175e-39
-5.860331262266897e-44
-2.922796341231412e-34
-5.2344983458609e-35
-4.138144879986763e-36
-1.822155870711247e-37
-4.66047041257066e-39
-6.500729486739867e-41
-3.818973930977185e-43
1
1
1
1
1
1
1
1
1
1
1
1
1
1
1
1
1
1
1
1
1
1
1
1
1
1
1
1
1
1
1
1
1
1
1
1
1
1
1
1
1
1
1
0.9999995418322429
0.9999993140171243
0.9999994633033309
1
1
1
1
1
1
1
1
1
1
1
1
1
1
1
1
1
1
1
1
0.999999967299829
0.9999993392737228
0.9999994896490106
1
1
1
1
1
1
1
1
1
1
1
1
1
1
1
1
0.9998730574841661
0.9902772688948513
0.9824252085332166
0.9972021518348747
1
1
1
1
1
1
1
1
1
1
1
1
1
1
1
1
0.987965333624562
0.910344573781608
0.7590515860881586
0.58535653677289
0.4299616889638526
0.3387854886603221
0.3637706710557792
0.4525456971563207
0.6004660886267792
0.7956072731970456
1
1
1
1
1
1
1
1
1
1
0.9964253927121438
0.9297570812017376
0.7483307760394708
0.4456553120187695
0.180070939037066
0.001710548492678969
5.64930308748825e-20
4.406333311578499e-23
4.261347641316803e-29
8.125720851847325e-28
0.001556466941342711
0.01575562644017299
0.07400357875593822
1
1
1
1
1
1
1
0.9846694309032122
0.9171956532903615
0.7705424813134307
0.4985708866440671
0.2219737228604202
0.006223760121720277
1.677509079256665e-19
-7.302483396268422e-20
0.0003955843032424767
0.0002634084692324028
8.924383359819995e-05
1.494470011006543e-21
1.090561237535514e-10
8.448157464179223e-19
-1.318503339251345e-20
-2.896436353994192e-19
0.9657668782401103
0.958648007412918
0.9402894174454897
0.9054080960424873
0.8458579472995521
0.7516301220462691
0.5938858758508813
0.3853791641650996
0.1909176895191761
0.03268150409847587
-7.535291479930282e-20
-9.777637110385233e-28
-6.252574492403168e-20
0.001425294511198073
0.005214510478259161
0.005735375995558932
0.00190608606495473
4.155135657592535e-20
7.388772691133216e-22
6.997004498219992e-12
1.007271528018162e-12
8.375490438051087e-13
1.307668721885682e-12
0.2866499078963757
0.2660876771474094
0.2237018688378745
0.1656876021835824
0.09973527686637801
0.0344323558083429
3.66212193931179e-20
-8.911601323313592e-29
1.599409756430871e-28
-3.125675958034997e-27
2.934928841260964e-10
4.731555430413126e-10
2.591903687071829e-27
0.002494958299718432
0.005735375995558933
0.00531547025760783
0.0009254921240298126
1.68967670462177e-20
1.445946492874778e-09
1.873424462634746e-10
1.937372130740489e-12
2.078183401900721e-13
2.201433553285493e-13
-9.876155972550142e-21
-7.049791948150704e-21
-9.073841375989104e-21
1.596697526189073e-38
4.274332701437861e-32
8.813442537138034e-31
6.121219510870229e-13
1.523936982814075e-11
6.827272422939648e-11
2.638944447018943e-10
1.094770912694393e-09
1.347880600359041e-09
1.742028419029706e-10
1.045106609625713e-23
0.001100615483692768
4.975524755909273e-12
3.211954611639091e-13
1.040132783318632e-07
1.341184914682641e-08
3.220890809219791e-13
5.972649209359599e-13
4.842560714182354e-12
5.062438855956546e-12
-3.01701553327452e-20
-2.891676720321329e-20
-1.011046803891857e-20
7.810109759443913e-19
1.036197251252443e-14
1.683565377141394e-12
3.359116740848825e-11
9.980177452440388e-11
1.652946170573976e-10
2.607667959171782e-10
7.295809448715676e-10
1.208692163692715e-09
5.693180156556659e-23
2.101199203340238e-24
-7.507641572414578e-23
1.771931371715678e-07
6.049715539574627e-07
2.942731359861762e-07
1.205147290673552e-14
4.481086130073444e-13
2.964778248002188e-11
1.397426248654751e-10
4.775696745381565e-11
-3.581199371450121e-20
-3.050274704382542e-20
3.829604766542743e-21
8.028911419197809e-16
5.256653036760421e-13
1.588216328138912e-11
1.102692034809005e-10
1.466166354013516e-10
1.524928162485261e-10
1.221416706444433e-10
1.14556931222252e-10
1.2097134353229e-10
8.959565792836793e-06
3.202475993877675e-05
1.474320453256929e-05
1.040666481025397e-06
1.575593128273283e-08
2.337691402798631e-17
1.662796719537515e-14
8.268999194160546e-12
1.613715304255212e-10
4.157884642148035e-10
4.533129784848902e-11
-2.721058136457877e-20
-1.2780817013092e-20
1.204905725291237e-17
4.789790038788881e-14
3.76418875884635e-12
4.159299917119587e-11
1.393077781418489e-10
8.974507967727934e-11
9.875213558918495e-11
7.888037247222484e-06
4.794781810532276e-06
1.145569312220003e-10
0.0001585858617030005
0.0002350974931350015
5.266893276495969e-05
7.709134823826194e-23
3.750994490287071e-22
3.458663277757946e-17
2.219785501785761e-13
2.395722580818629e-11
2.449312892820405e-10
4.221493795961642e-10
1.414795301794848e-10
-1.440382797174901e-20
4.608701465118238e-20
1.200154835170801e-15
3.883933355096173e-13
8.651184577068087e-12
5.390428257307609e-11
1.232258915580032e-10
5.764539644471384e-11
3.847185370718567e-06
9.818286039111918e-05
9.091919132415169e-05
2.92541140772584e-05
0.0002350974931350015
0.0002311296901426372
2.031923487849112e-05
3.675887859523216e-22
1.065802825349072e-19
6.398226840050171e-16
5.29535906734809e-13
2.614681582802905e-11
1.175889600632486e-10
1.891662662173144e-10
1.023517474044604e-10
-4.439270907556165e-21
7.143605995432433e-18
1.356768277125117e-14
9.414805452003225e-13
1.114675629979733e-11
5.49326138668511e-11
7.321021358105509e-11
5.818545228297873e-11
4.773258612860318e-05
0.0001178718307156585
0.0001156524124906261
3.407541445007051e-05
0.0001413289921244908
3.215383210715154e-06
-2.013898901493157e-23
6.102223029764941e-22
1.870988007080305e-18
1.461702111719022e-15
3.370148788272294e-14
8.258345146982218e-14
1.010236668467264e-13
3.604683138110164e-12
1.371364423367109e-11
2.065770960854095e-21
9.547748586402236e-17
3.677713422488502e-14
1.311911279864898e-12
1.141425209072693e-11
2.622593549650353e-11
2.485340218349688e-09
1.085194585939522e-06
5.378941862764554e-05
6.877561032666424e-05
1.546809131309664e-05
-3.492540363159837e-26
-2.803688687573901e-22
-4.072946671278787e-22
1.017352748039068e-24
1.034777778394151e-20
7.114403255249546e-19
3.445975449852246e-18
4.92963187466346e-18
1.446180659348102e-15
3.630112539864628e-13
3.771345576993185e-12
7.750142213921985e-12
4.631174417690138e-20
2.679451822548306e-16
4.713911187334394e-14
1.501249868781041e-12
1.034483843708337e-11
1.024616100850221e-11
1.001725177923888e-07
2.092826951006256e-06
4.099008883317044e-09
2.107701737413058e-26
6.609224103060684e-27
3.953579898615815e-11
-6.031972566841907e-22
-1.724180954413654e-22
-3.843366165625585e-23
-2.335643759970725e-23
-9.925318238322174e-24
1.113199734314171e-23
6.565612276593512e-21
1.022657000948904e-18
4.087407473234225e-16
6.043338014398191e-14
4.137265159654426e-12
1.516855479909144e-19
3.282868968615615e-16
3.900839264631714e-14
1.48437555257384e-12
4.284445230053016e-11
2.499285813588009e-09
1.30929912365567e-07
1.410382924291054e-07
3.314418553071065e-09
1.162066832192542e-08
4.269155312266406e-09
5.792920036119644e-10
1.58822347844435e-38
9.429612481666737e-21
-1.747247572809771e-23
-8.555986390433506e-24
-3.895674501952045e-41
1.392442537354324e-22
3.188328166003643e-20
7.864538393786831e-19
2.336851402361541e-17
1.92239071609444e-15
7.745689172928124e-15
1.886525714766741e-19
1.8997524170904e-16
1.72780423627661e-14
3.002368032636709e-12
2.88042756381359e-10
3.851157831814073e-09
5.755257340472584e-15
8.136189361636219e-25
2.178264470552593e-07
8.858446431464119e-07
6.350289588696168e-07
0
9.999314596334535e-23
6.056974951129419e-16
-7.302213202090346e-24
-3.39975066569385e-24
-1.118068612533276e-24
5.949470442256348e-25
1.29297207498258e-22
1.628154340170806e-21
6.361221529273575e-21
1.664111380303329e-19
8.880244030613885e-19
5.959356109581843e-20
4.087680716829493e-17
3.447625542409649e-14
8.379201598990184e-12
6.153829726414403e-11
1.513850702288457e-11
1.196933999945937e-29
-4.836142356997892e-26
5.717989408277819e-07
1.231982410326423e-06
1.177212237654101e-06
7.426080286073555e-31
3.844900452193862e-14
1.010713985747892e-12
-3.087841546084712e-24
-1.300118835175612e-24
-4.860113801175802e-25
-4.089546955188391e-25
-5.154385151869542e-25
-4.828685478977888e-25
-2.306163261479113e-25
-9.693746816676938e-43
1.871326078203966e-26
3.864069473636536e-21
3.28438564343796e-17
2.00325477605265e-14
2.727582057612134e-13
5.654307787692088e-13
1.604992081273716e-12
7.868142482167926e-12
1.121408255069734e-16
1.915111101072844e-07
7.975729705710163e-07
3.747158752363201e-07
-1.407964133458611e-26
1.245315962833433e-10
6.555950618529154e-11
-1.531106923133709e-24
-5.62401606216804e-25
-1.412068947728719e-25
-7.132584021386051e-26
-1.040064552549456e-25
-1.416943082739132e-25
-1.46468155345797e-25
-1.025403954678923e-25
-4.029623502263982e-26
2.326272105176291e-21
6.70021867743473e-19
6.243862130445538e-18
2.049010560629842e-17
5.562857997570867e-14
3.879930132580672e-12
1.858496200460537e-11
1.995049153383457e-11
1.273868824609775e-22
4.985914800716404e-25
9.35269874238945e-27
1.569696040420593e-09
2.7066708786665e-09
4.403964869109476e-10
-7.455076093915823e-25
-3.091333493942613e-25
-5.64072973089839e-26
-9.423799272771967e-27
-1.266860889748353e-26
-1.909185926368211e-26
-2.335260294126259e-26
-2.077507892211938e-26
-1.158482620796928e-26
-3.490492820843282e-29
3.469082844808674e-28
8.619579227562979e-23
1.058800535954909e-17
3.067135317264413e-14
2.389496695737187e-12
1.349841914701179e-11
1.619987427633509e-11
1.104349480002756e-13
1.665638481348124e-12
4.830244672073954e-10
3.811886827500875e-09
4.701060738930549e-09
9.482174899668981e-10
-3.820308733748516e-35
-1.752312058114471e-25
-2.826445980480569e-26
-1.134895076494167e-27
-1.175127200796504e-27
-1.829907559371773e-27
-2.468273581266051e-27
-2.534963945655425e-27
-1.762518983261704e-27
-1.435331247227428e-29
6.715827627194704e-43
1.714070935079755e-24
9.308693651017642e-20
1.501738013363018e-16
1.326703764003789e-14
1.273690036863542e-13
2.621751752924001e-13
2.626900767722636e-13
3.147320516169861e-12
1.028795585708884e-10
4.957334711076248e-10
8.785632840254156e-10
2.919311696537439e-10
4.946078087082212e-18
-8.05871736392371e-26
-1.285578472138151e-26
-1.361145323112181e-28
-8.983923207454682e-29
-1.364918295101097e-28
-1.975434048483706e-28
-2.256716983917278e-28
-1.849084228320344e-28
-5.167595527549621e-30
-9.283840924399198e-29
-7.909425789775199e-28
-4.212624732315929e-27
-1.567766343259554e-26
-4.330432107709029e-26
-9.20634833683657e-26
-1.536256897551918e-25
-2.019767413043486e-25
-2.057100819187603e-25
-1.529241578926211e-25
-6.84445540475683e-26
1.778472833996685e-35
2.05901375662506e-14
4.079600609283475e-12
-2.704752539853475e-26
-4.256789023621934e-27
-1.614233988954083e-29
-5.980245169085209e-30
-8.093440574646725e-30
-1.231581381592672e-29
-1.536692210498542e-29
-1.432491214747826e-29
-1.954237473805749e-31
-4.155257579603712e-30
-4.192960014112981e-29
-2.655378645683782e-28
-1.186572994094608e-27
-3.985833697676056e-27
-1.046167349978897e-26
-2.197942406924366e-26
-3.747189427334068e-26
-5.213406829031726e-26
-5.924857940834329e-26
-5.520304376485208e-26
-4.300348430500884e-26
-2.90496491565457e-26
-1.668823644116261e-26
-6.545700306326063e-27
-9.079670120525598e-28
-1.727422868862444e-30
-3.664724256541199e-31
-3.897950004233775e-31
-6.080503493342379e-31
-8.195377370757538e-31
-8.50841785812581e-31
-3.397576410281413e-33
-8.546225239819785e-32
-1.019243561009109e-30
-7.645131754964676e-30
-4.060021883430818e-29
-1.6290133772069e-28
-5.145550908355734e-28
-1.315404715957873e-27
-2.77140559118609e-27
-4.859975890420412e-27
-7.101310582764394e-27
-8.564570530002116e-27
-8.325714004724394e-27
-6.232049406622094e-27
-3.297328159765711e-27
-1.032464127250236e-27
-1.153992131552244e-28
-1.53220305221776e-31
-2.117581623724134e-32
-1.566607317795259e-32
-2.407060982380647e-32
-3.477504924344179e-32
-3.982985281559049e-32
-3.865280801335073e-35
-1.10038894159044e-33
-1.488707538509329e-32
-1.271795679714257e-31
-7.72312523248918e-31
-3.55568443764698e-30
-1.291898778420083e-29
-3.802870859486742e-29
-9.220094671172157e-29
-1.855943914514998e-28
-3.098788572762382e-28
-4.241801043962875e-28
-4.637448702170459e-28
-3.857797758745976e-28
-2.233529834964001e-28
-7.47652733016352e-29
-8.359710152237165e-30
-1.047656332580458e-32
-1.094190651071909e-33
-5.436204480137253e-34
-7.743503936016932e-34
-1.190237507051789e-33
-1.498879200614026e-33
-1.041607521476835e-37
-3.339913383134539e-36
-5.091140227432911e-35
-4.908704335675447e-34
-3.368882488112956e-33
-1.754022239313939e-32
-7.203438195380126e-32
-2.392196428640745e-31
-6.521726268032252e-31
-1.469845286449971e-30
-2.736077179400464e-30
-4.166179546894047e-30
-5.083881298015563e-30
-4.797120151493658e-30
-3.293220464251044e-30
-1.467725002233841e-30
-3.211198365775053e-31
-5.184808295705674e-34
-4.691779438353624e-35
-1.690696347594883e-35
-2.050152906276985e-35
-3.299553113177004e-35
-4.550245990036987e-35
-7.128503032611431e-43
-3.629928594366552e-41
-8.850702044156641e-40
-1.378461076866343e-38
-1.542047367508648e-37
-1.318699553579667e-36
-8.946553530661001e-36
-4.926229263418917e-35
-2.230489461476235e-34
-8.349144396064949e-34
-2.578897200736522e-33
-6.509323693130699e-33
-1.316302552899871e-32
-2.060333748879376e-32
-2.351592069912829e-32
-1.746551073487294e-32
-6.360102296883381e-33
-1.776940819575197e-35
-1.565868917110647e-36
-4.701471341984169e-37
-4.532046901145991e-37
-7.441982126458249e-37
-1.119112963363616e-36
-1.902078076522818e-45
-1.074285212598583e-43
-2.897572235839312e-42
-4.979789815565303e-41
-6.126930854466066e-40
-5.738090586409159e-39
-4.24101535202323e-38
-2.528382868066883e-37
-1.230959083932662e-36
-4.917956584854054e-36
-1.609042629839472e-35
-4.26969254908608e-35
-9.012954574576638e-35
-1.46335788579676e-34
-1.723462744643134e-34
-1.316158690623524e-34
-4.933476272048208e-35
-4.130015027284319e-37
-3.93672921728916e-38
-1.146756758060129e-38
-8.515124015116118e-39
-1.374097558001701e-38
-2.239681180613071e-38
-1.764500226351076e-48
-1.081924532420668e-46
-3.151611388755521e-45
-5.819468017968571e-44
-7.648598996408557e-43
-7.604255714192272e-42
-5.927526412985392e-41
-3.702618188501541e-40
-1.876765705376984e-39
-7.760361066113612e-39
-2.614094900726457e-38
-7.111183893376311e-38
-1.534258873450733e-37
-2.543194550385707e-37
-3.064514022209241e-37
-2.418799993765408e-37
-9.804874985621886e-38
-6.093489706731543e-39
-7.18885352666229e-40
-2.30945096564555e-40
-1.38233633962899e-40
-2.092159584617012e-40
-3.66043362148753e-40
-1.308895316741977e-53
-8.404333771821673e-52
-2.659145796920421e-50
-5.55363837878277e-49
-8.596097988951481e-48
-1.044695726170309e-46
-1.02836991050996e-45
-8.339224550057929e-45
-5.618609258817182e-44
-3.154237606620108e-43
-1.472623525145492e-42
-5.678829418193589e-42
-1.785846701568771e-41
-4.484845023056519e-41
-8.698666259777695e-41
-1.233473871193845e-40
-1.159479725207187e-40
-5.88492087008736e-41
-9.41101024044257e-42
-3.698795592201509e-42
-1.951438261428007e-42
-2.653173789759625e-42
-4.913151065696802e-42
-1.180638135429817e-56
-1.007544933787411e-54
-4.08564794774815e-53
-1.053252781373181e-51
-1.940000304343333e-50
-2.715245628261383e-49
-2.995068040068218e-48
-2.663088951408967e-47
-1.934716415658879e-46
-1.156293421948937e-45
-5.691542664877046e-45
-2.297000593480825e-44
-7.519069123566652e-44
-1.958809644939317e-43
-3.937774783433327e-43
-5.809968041680218e-43
-5.77798132131442e-43
-3.32682418712355e-43
-9.458994516596546e-44
-4.644154709601573e-44
-2.382207650403519e-44
-2.827298007360479e-44
-5.406098413003373e-44
-1.355482015215058e-59
-1.250397924409273e-57
-5.452686850556016e-56
-1.504241852406418e-54
-2.949996568948558e-53
-4.373558879766387e-52
-5.084414898874411e-51
-4.74158454492356e-50
-3.596759413620798e-49
-2.235645878739683e-48
-1.140831568822171e-47
-4.763320693045135e-47
-1.612601733460594e-46
-4.356349760452649e-46
-9.158143739029617e-46
-1.443578895619471e-45
-1.622151039120872e-45
-1.245057991353784e-45
-7.235599943258341e-46
-4.537399629095648e-46
-2.461980347937237e-46
-2.545621446711289e-46
-4.874544724290797e-46
-7.796054518710472e-63
-7.646514086161813e-61
-3.528858191097511e-59
-1.02623889470817e-57
-2.114240413803855e-56
-3.283375513495016e-55
-3.989863909243419e-54
-3.884749276309015e-53
-3.076703154518853e-52
-1.999901729591378e-51
-1.071287305851879e-50
-4.728581655059928e-50
-1.713093214960894e-49
-5.056925324054088e-49
-1.204713122369541e-48
-2.295566151045783e-48
-3.491842794503633e-48
-4.291392713395818e-48
-4.315459879645231e-48
-3.41230606736952e-48
-2.08811520884377e-48
-1.946521334736034e-48
-3.588337344410915e-48
-1.614141358045109e-66
-1.669669592217082e-64
-8.104338494989801e-63
-2.476157484478798e-61
-5.364053304681584e-60
-8.790541213038223e-59
-1.135433960304442e-57
-1.189294910016705e-56
-1.031458911575794e-55
-7.522816970258045e-55
-4.664960956468612e-54
-2.47558843544837e-53
-1.126132204326907e-52
-4.375327252042606e-52
-1.438578206911773e-51
-3.941937123680887e-51
-8.802151965431404e-51
-1.551618801642234e-50
-2.067199125736067e-50
-1.983259806609068e-50
-1.421127525329251e-50
-1.246775026315066e-50
-2.142618655317439e-50
-1.13354750078684e-70
-1.471612375510749e-68
-9.123569524675604e-67
-3.615965244637037e-65
-1.028395687305611e-63
-2.230080827421768e-62
-3.823508062319822e-61
-5.305004787023603e-60
-6.049042281993181e-59
-5.726495276338791e-58
-4.529536493051268e-57
-3.003226195917988e-56
-1.6697725199715e-55
-7.764947538322283e-55
-3.001968634765245e-54
-9.548108608940787e-54
-2.457822283342543e-53
-4.996944073241458e-53
-7.754875194126184e-53
-8.842590972208e-53
-7.506182403218724e-53
-6.532805168199525e-53
-1.023047233234621e-52
-6.380407366025454e-74
-9.436132542464493e-72
-6.549431007967389e-70
-2.863636854983517e-68
-8.877152386551475e-67
-2.078803694091263e-65
-3.823654621071062e-64
-5.668925600447323e-63
-6.896163304312864e-62
-6.968680660168973e-61
-5.897853480246087e-60
-4.200572470787906e-59
-2.521603107223292e-58
-1.273678394256613e-57
-5.384549451830002e-57
-1.887162873641254e-56
-5.403760808064469e-56
-1.238085460091038e-55
-2.206646054138162e-55
-2.960215540363814e-55
-2.966415240913885e-55
-2.683402646789747e-55
-3.797196087781079e-55
-3.801299945780721e-77
-5.878899414905854e-75
-4.267048014590863e-73
-1.953185128084179e-71
-6.350053484817666e-70
-1.563378941304299e-68
-3.032602975677181e-67
-4.758707399696767e-66
-6.151555524574953e-65
-6.633449534149959e-64
-6.015971357593408e-63
-4.609621834936202e-62
-2.988026764365044e-61
-1.635593533580167e-60
-7.522733363126097e-60
-2.882918730150986e-59
-9.091525228645603e-59
-2.318091091351905e-58
-4.663491650026566e-58
-7.177149040479227e-58
-8.293113131441796e-58
-8.041586624852459e-58
-1.034677037689176e-57
-1.516106305624901e-80
-2.479331029964669e-78
-1.904201106081285e-76
-9.240450564217013e-75
-3.191600559412185e-73
-8.364973324630576e-72
-1.730531694297904e-70
-2.900396327965014e-69
-4.008594632329878e-68
-4.623852536145953e-67
-4.486164687721295e-66
-3.677278644012004e-65
-2.550573852717962e-64
-1.495394799811815e-63
-7.383959353792034e-63
-3.050456643147751e-62
-1.043490664122588e-61
-2.910478154968479e-61
-6.473919443923744e-61
-1.115770658802215e-60
-1.457013202315467e-60
-1.531709894582813e-60
-1.82084607964146e-60
-1.76544206072064e-84
-3.179159065089244e-82
-2.687683876035036e-80
-1.434897449730807e-78
-5.448072030861991e-77
-1.567835872357873e-75
-3.555751683669103e-74
-6.520479883162628e-73
-9.839058676706029e-72
-1.236527153901586e-70
-1.304928409521076e-69
-1.162388496180894e-68
-8.762824260631359e-68
-5.592084463777922e-67
-3.013960406516874e-66
-1.364571803276293e-65
-5.141382757913631e-65
-1.588653815850496e-64
-3.940774594496266e-64
-7.628294476480873e-64
-1.120026965878694e-63
-1.268783275176782e-63
-1.408000610579348e-63
1
1
1
1
0.9999999272706268
0.9999999860094391
0.9999962601459024
1
0.9999999311099763
1
0.9999993886093772
0.9999993440740373
1
1
1
0.9999998108206924
0.9547881550339233
1
1
1
0.1523852169283086
0.2404491310781892
0.3360166949287205
0.4260198962540717
-3.07285148676634e-19
6.188957909934117e-19
3.686020275498974e-19
7.356418698474755e-18
1.336115921560328e-12
1.304149387175381e-12
1.209019835063117e-12
-3.53187618696822e-23
3.488130175973628e-13
5.806209333908564e-13
6.562868002105664e-13
4.949009478150987e-13
9.486996265727282e-11
2.478445996412523e-11
5.600984458020522e-14
1.035504293420047e-34
1.272972704289241e-09
1.087041725391509e-09
2.785123479565896e-09
6.17822234483918e-11
3.089292600183657e-10
3.216713410470511e-09
3.89686585831122e-09
2.317858039495653e-06
5.45327155155841e-12
4.798067544796766e-12
2.933867121301781e-06
3.188819965000256e-05
1.248681998575761e-11
5.453271551558408e-12
3.425199861721862e-05
0.000124762347814306
1.458093960684405e-11
8.309608856841703e-12
8.075626989563391e-12
0.0001264808837107192
1.692942590229201e-11
2.157810312164027e-11
1.346660558196014e-11
7.456183489251505e-12
2.38601294423629e-11
2.452669064386753e-11
1.442683412622125e-11
6.306080576760948e-12
2.913785008953674e-15
2.82299904444303e-17
2.540494818389418e-14
1.161727669815603e-11
5.238592624112636e-19
3.08357672746695e-20
-7.249090977880776e-46
2.123260886058905e-29
-9.468965430036063e-28
-1.681059367157829e-28
1.286192536485609e-23
4.862505145905991e-22
-3.477237412026499e-27
-1.454062022501541e-41
1.065437312780886e-22
3.077813389854011e-20
-2.336990033160069e-27
-6.712325673848178e-28
-9.907420405361482e-29
2.221994693758061e-37
-6.004630703108279e-28
-2.4023478417297e-28
-5.461198203737194e-29
-1.055171431204509e-40
-9.238515881732466e-29
-5.327055091220437e-29
-2.49010070126848e-29
-1.33341311653535e-30
-9.115827943683504e-30
-6.370401571759085e-30
-4.287608396902102e-30
-2.786731971376941e-30
-6.417985514769476e-31
-4.995351365450253e-31
-3.849887505469436e-31
-2.917101260110565e-31
-3.457047702963811e-32
-2.911848563885907e-32
-2.452588875973737e-32
-2.061352236185832e-32
-1.473790491255326e-33
-1.330423113394266e-33
-1.204213094133262e-33
-1.093826146824836e-33
-5.010136438353584e-35
-4.816742750518999e-35
-4.656796024585743e-35
-4.535788967468441e-35
-1.371596613314663e-36
-1.399927088193956e-36
-1.440758791483157e-36
-1.499004107741995e-36
-3.042191183112823e-38
-3.293272870271652e-38
-3.613823144656662e-38
-4.027642042590704e-38
-5.484844073850918e-40
-6.294150802893322e-40
-7.369639303692457e-40
-8.968354079052696e-40
-8.122094200737204e-42
-9.906423607454789e-42
-1.228835894000065e-41
-1.618179277464673e-41
-9.764363808997136e-44
-1.266373177203595e-43
-1.665954608368297e-43
-2.365756260305022e-43
-9.500263386474606e-46
-1.30787501633625e-45
-1.824650181713846e-45
-2.790080247920044e-45
-7.428565785932519e-48
-1.082783951483864e-47
-1.601111562613349e-47
-2.63155814165415e-47
-4.616432866539705e-50
-7.096658833613913e-50
-1.110603133693107e-49
-1.957272004231551e-49
-2.237105481628338e-52
-3.606865526665295e-52
-5.959393747539044e-52
-1.122499344242035e-51
-8.18308581966381e-55
-1.373333612661604e-54
-2.387517473675949e-54
-4.78621141886586e-54
-2.128426203291229e-57
-3.682024650312068e-57
-6.709360295152987e-57
-1.424020744419051e-56
-3.467500537125897e-60
-6.117402717267921e-60
-1.166685371532822e-59
-2.606160450142286e-59
-2.444626964890711e-63
-4.344766502864879e-63
-8.708891841169252e-63
-2.053557568794377e-62
0.3144961037411704
4.29319810304354e-19
2.067141246468277e-18
1.039504502685295e-13
6.720673269386493e-13
7.204728987649213e-13
4.739837718102e-15
8.5925541355944e-16
1.067379412285221e-16
3.071383173794907e-18
6.342499604715989e-21
1.909656576853322e-25
1.405260726787991e-30
6.471329473083109e-36
-1.298137304887153e-35
-1.39651309468322e-36
-5.95786774778715e-38
-1.195351193492574e-39
-9.39292990105677e-42
0.9881583899192327
0.5557414709412997
0.009494835109512293
9.187589051526976e-14
1.640738882383536e-12
2.639301506488412e-11
3.71141815694398e-12
8.539508610295088e-16
1.741759852054264e-15
4.099744539356625e-16
1.054975152370401e-17
6.67783239643399e-21
4.979914243024405e-26
2.72607112664662e-31
6.258269412506647e-37
-1.520463553687129e-35
-1.199472679142329e-36
-3.550823208235936e-38
-3.838687756856023e-40
1
0.9999999061029718
0.7409295693162684
0.1004353686315066
1.746961594956178e-12
6.895476186641707e-11
3.853531571063253e-10
1.185625143755013e-10
1.758281827656442e-12
3.619853806482468e-15
1.820603636878779e-16
8.853841238280753e-19
6.592045028034832e-23
1.970038422103263e-28
2.502693071916039e-34
-1.554687218556212e-34
-1.724785429677243e-35
-6.68643744070616e-37
-9.092465796694613e-39
0.999925324959311
0.9999835316015715
1
0.8317713147579882
0.1741244610220372
7.967408285347447e-11
1.885835173362227e-09
3.651484685694373e-09
8.42945946251324e-10
6.684684575997678e-12
2.392588852406964e-23
1.760914512261935e-21
3.258151542778078e-23
4.612016193082144e-27
2.053552010649488e-32
-9.811740299602558e-34
-1.486975585170344e-34
-6.799547039284964e-36
-1.067725605467367e-37
1
0.9999999939571458
1
1
0.7739680842725427
0.09243004075917843
2.191285593031338e-09
7.367035298666611e-09
6.100759656907157e-09
4.449591001581719e-10
3.812238567950372e-23
4.250415268946235e-22
7.753691994170497e-23
5.38913468590057e-25
3.354722031348017e-29
9.285821586042536e-36
-1.037550731349109e-34
-7.847847133019752e-36
-1.627728475883846e-37
0.839513872673838
1
1
1
1
0.5202108407261095
0.005870386303997659
5.049970074826671e-09
7.734925956570178e-09
2.761979480526709e-09
4.295068432191099e-11
4.409554463404239e-22
1.187651044278691e-21
1.019831554761985e-22
9.9869177320725e-26
2.207286574778994e-31
9.712800759248598e-50
-2.429547718573127e-36
-7.718891833559663e-38
0.05755222226611113
0.3380684723507612
0.9074643638081207
1
1
0.928349806510134
0.2075331612033983
2.948395900459302e-11
1.271155631273874e-09
7.668813541452101e-10