/*--------------------------------*- C++ -*----------------------------------*\
| =========                 |                                                 |
| \\      /  F ield         | OpenFOAM: The Open Source CFD Toolbox           |
|  \\    /   O peration     | Version:  2206                                  |
|   \\  /    A nd           | Website:  www.openfoam.com                      |
|    \\/     M anipulation  |                                                 |
\*---------------------------------------------------------------------------*/
FoamFile
{
    version     2.0;
    format      ascii;
    arch        "LSB;label=32;scalar=64";
    class       surfaceScalarField;
    location    "0.25";
    object      alphaPhi0.water;
}
// * * * * * * * * * * * * * * * * * * * * * * * * * * * * * * * * * * * * * //

dimensions      [0 3 -1 0 0 0 0];

oriented        oriented;

internalField   nonuniform List<scalar> 
4432
(
4.498447382361167e-06
-4.49844743814033e-06
9.066104945901495e-06
-4.567657611712375e-06
1.360996025610174e-05
-4.543855369575846e-06
1.818124102366792e-05
-4.571280838281248e-06
2.27847795212855e-05
-4.60353857810122e-06
2.740856636792787e-05
-4.623786938370757e-06
3.204097690706388e-05
-4.632410644255382e-06
3.666521930669343e-05
-4.624242518402574e-06
4.125311605633075e-05
-4.587896879003755e-06
4.57605040104154e-05
-4.507388087204297e-06
5.012158817527692e-05
-4.361084292955148e-06
5.424125679540715e-05
-4.11966872954822e-06
5.79849546750116e-05
-3.743697940869181e-06
6.11658356103368e-05
-3.180880887278842e-06
6.353033226429915e-05
-2.364496395584638e-06
6.47454925758508e-05
-1.215159704072249e-06
6.440616559796526e-05
3.393282087083209e-07
6.19912232627015e-05
2.414944676592614e-06
5.689835674272153e-05
5.092870873849011e-06
4.846510140012722e-05
8.433263534713898e-06
3.620009158836014e-05
1.226502594398425e-05
1.959625543951006e-05
1.660386912530308e-05
1.957487841930756e-05
4.55568753156364e-06
-9.054135022576268e-06
9.133711580783392e-06
-9.145681712361489e-06
1.371842473515867e-05
-9.128568587353981e-06
1.832848922835168e-05
-9.181345405531592e-06
2.296512311899941e-05
-9.24017255179815e-06
2.762220550730648e-05
-9.280869419680669e-06
3.22901069643815e-05
-9.300312205856248e-06
3.695259856129986e-05
-9.28673423077199e-06
4.15825776300636e-05
-9.217876070432985e-06
4.61376448987709e-05
-9.062455478584691e-06
5.055445713285987e-05
-8.777896641446394e-06
5.474126909611359e-05
-8.306480781022768e-06
5.856797526565142e-05
-7.570404123408822e-06
6.185320992554948e-05
-6.466115384045429e-06
6.435025862666394e-05
-4.861544614547172e-06
6.573540883035365e-05
-2.600308968792664e-06
6.555799219931926e-05
5.167465102805912e-07
6.332880673955998e-05
4.644132974849842e-06
5.838884538589865e-05
1.003283701003922e-05
5.002436803755305e-05
1.679774931294329e-05
3.753638872611121e-05
2.475302148129689e-05
2.044599633105441e-05
3.369429525549425e-05
4.000585187455667e-05
4.549886148430343e-06
-1.360402124268188e-05
9.111322214831893e-06
-1.370711784675281e-05
1.369763382340744e-05
-1.371488027283728e-05
1.830965395847467e-05
-1.379336562393426e-05
2.294628680684429e-05
-1.387680548773036e-05
2.760525423367277e-05
-1.393983693855689e-05
3.227921957619711e-05
-1.397427764574029e-05
3.69534298240952e-05
-1.396094458002776e-05
4.160277298126509e-05
-1.386721932884343e-05
4.618765593604165e-05
-1.364733852751321e-05
5.064842933056082e-05
-1.323867011586576e-05
5.489816197885863e-05
-1.255621346889492e-05
5.881256030948902e-05
-1.148480237037328e-05
6.221592235114159e-05
-9.869477060340792e-06
6.486471740739729e-05
-7.510338835539414e-06
6.642971606888034e-05
-4.165306209706737e-06
6.650898994858434e-05
4.374748639653839e-07
6.456335216285122e-05
6.589774127046048e-06
5.995729213834738e-05
1.463890206772822e-05
5.189651678370495e-05
2.485853291003447e-05
3.948691585115158e-05
3.716263833237214e-05
2.194375395497952e-05
5.123749235684321e-05
6.193540728102799e-05
4.543270674232164e-06
-1.814729198919359e-05
9.091986870725074e-06
-1.825583410540292e-05
1.36765959777248e-05
-1.829948944455391e-05
1.828813247445834e-05
-1.840490218487699e-05
2.292507499291902e-05
-1.851374806650219e-05
2.758803391908829e-05
-1.86027959199612e-05
3.227216136570664e-05
-1.865840514177726e-05
3.696508722582273e-05
-1.865387048086818e-05
4.164477251246278e-05
-1.854690464219894e-05
4.627576361459775e-05
-1.827832963503784e-05
5.08038436921539e-05
-1.776675017125297e-05
5.514925979587228e-05
-1.690162947945043e-05
5.919643113822447e-05
-1.55319734086394e-05
6.277812549501697e-05
-1.345117067222739e-05
6.565719226486577e-05
-1.03894042178189e-05
6.751329308274768e-05
-6.021404976973793e-06
6.792418562367964e-05
2.658517371020895e-08
6.638059755409942e-05
8.133366158698573e-06
6.222433968939218e-05
1.879516527006441e-05
5.460721410182959e-05
3.247566655400737e-05
4.240950103376731e-05
4.936036708732653e-05
2.430621538774796e-05
6.934081584955961e-05
8.6275104054242e-05
4.533123569584096e-06
-2.268041559457308e-05
9.070669703077414e-06
-2.279338025474346e-05
1.365212557180852e-05
-2.288094532185929e-05
1.826210892500905e-05
-2.301488553409733e-05
2.290038834360878e-05
-2.315202746298504e-05
2.757015827350318e-05
-2.327256580521265e-05
3.226927118206045e-05
-2.335751797829242e-05
3.698853205770983e-05
-2.337313124939082e-05
4.171003511499269e-05
-2.326840754698326e-05
4.640383511605343e-05
-2.297212942660561e-05
5.102299971621899e-05
-2.238591449618223e-05
5.549766376298374e-05
-2.137629309991687e-05
5.972437987636536e-05
-1.975868870413122e-05
6.354730230005504e-05
-1.727409158343228e-05
6.67362018624216e-05
-1.357830146243394e-05
6.897138563313594e-05
-8.25658587444845e-06
6.983966756021379e-05
-8.416932540933115e-07
6.882680965573268e-05
9.146228669032052e-06
6.528551401301159e-05
2.233646674994115e-05
5.831506826219061e-05
3.944612048226135e-05
4.653411177001615e-05
6.114133946762408e-05
2.783462533263003e-05
8.804034446611742e-05
0.0001141276621461024
4.521071776379466e-06
-2.720148728523243e-05
9.048984883773635e-06
-2.732129323847077e-05
1.362647848668387e-05
-2.745843877594373e-05
1.823482649596569e-05
-2.762323336012996e-05
2.287592714326317e-05
-2.779312788168541e-05
2.755551489403951e-05
-2.795215327007632e-05
3.227441678596434e-05
-2.807641951188897e-05
3.702728255766172e-05
-2.8125996569938e-05
4.180131500169487e-05
-2.804243942233279e-05
4.657341608984331e-05
-2.77442298018502e-05
5.130585297691737e-05
-2.711835050320924e-05
5.594175491889505e-05
-2.601219380581417e-05
6.039404491882164e-05
-2.421097668566615e-05
6.452232577376665e-05
-2.140236929391207e-05
6.810590098016442e-05
-1.716187263323351e-05
7.082937423525171e-05
-1.09800551120957e-05
7.227477107647969e-05
-2.287086126602873e-06
7.192925209758534e-05
9.491752906910546e-06
6.918181224956606e-05
2.508391344845184e-05
6.312711163393594e-05
4.55008303063411e-05
5.214186610281015e-05
7.21266022233924e-05
3.310742886766532e-05
0.0001070748310795998
0.0001472350027327881
4.513863253918063e-06
-3.171535016877089e-05
9.033485375395441e-06
-3.18409149241268e-05
1.36060267000564e-05
-3.203097960980455e-05
1.821258210443446e-05
-3.222978820116356e-05
2.285737411266938e-05
-3.243791923304269e-05
2.754885359169724e-05
-3.264363197120241e-05
3.229113671537436e-05
-3.281870169949758e-05
3.70832575005985e-05
-3.291811621211944e-05
4.191834409527324e-05
-3.287752460933066e-05
4.678129969146291e-05
-3.260718366060405e-05
5.164532589294032e-05
-3.198237457056072e-05
5.646948427934309e-05
-3.083634922617061e-05
6.118694822045385e-05
-2.892843606269489e-05
6.567630612809328e-05
-2.589172075580874e-05
6.972822133728321e-05
-2.121378058536087e-05
7.302983977569052e-05
-1.428166779589038e-05
7.518090263435305e-05
-4.438145175437626e-06
7.564936520928497e-05
9.023295893843805e-06
7.390921176148157e-05
2.682407571245938e-05
6.913012218932048e-05
5.027993214195822e-05
5.958607532458904e-05
8.16706702363103e-05
4.116076893321009e-05
0.0001255001992536749
0.0001883956734308848
4.519369891735449e-06
-3.623471853042944e-05
9.024856953286211e-06
-3.634640034096482e-05
1.359372981153865e-05
-3.659985067864724e-05
1.819835545293774e-05
-3.68344118556705e-05
2.284729779202515e-05
-3.708685932547473e-05
2.75523529221257e-05
-3.734868450951221e-05
3.232119417640482e-05
-3.758753989759322e-05
3.715778329832149e-05
-3.775470165546696e-05
4.206201319276079e-05
-3.778175001023802e-05
4.702792294397365e-05
-3.757308788069541e-05
5.204155605648823e-05
-3.699600086080139e-05
5.708091097280191e-05
-3.587569498419654e-05
6.210267982596863e-05
-3.395019186154878e-05
6.700758130581955e-05
-3.079660500957406e-05
7.160210221088716e-05
-2.580828288837264e-05
7.557896135134548e-05
-1.825851294936703e-05
7.852614333243682e-05
-7.385322719729103e-06
7.992017467875835e-05
7.629266506928879e-06
7.93842513815239e-05
2.736000617465518e-05
7.631260967546225e-05
5.335159127446855e-05
6.91946731800468e-05
8.878864523240237e-05
5.373838741413493e-05
0.0001409565884955926
0.0002421339544345951
5.129012127272958e-38
-3.299291652047355e-39
1.064510175157482e-36
-9.475947504844196e-38
7.346682066453506e-36
-4.178717005682569e-37
3.261133744313336e-35
-4.139835568892286e-37
4.979993428645559e-36
1.169534976769394e-34
1.033385589638444e-37
3.429343610600671e-35
7.860185958895711e-40
1.679065948632247e-36
-2.578448138297021e-40
3.970152784013289e-38
-8.799170601806678e-42
3.80568331883409e-40
-3.457689585161444e-43
9.258622270398277e-42
-1.010168765207948e-44
1.754347768836663e-43
-2.15441322312253e-46
1.881568432757788e-45
-3.408886626003656e-48
-3.623049635813159e-50
-4.476849456575113e-50
-3.785502561031907e-51
-4.541105585360555e-52
-7.565417822896511e-53
-3.266185254384788e-54
-9.039040173877095e-55
-1.466861180633267e-56
-6.89941416770618e-57
-3.061810259391862e-59
-3.101709260009351e-59
-6.15338112074648e-62
6.515046778886026e-36
-9.717143678787528e-37
1.020684482854303e-34
-2.153544019325955e-35
4.658376241809041e-34
-7.142037361060555e-35
8.304654570664853e-34
-3.898425663252496e-35
1.108647930312591e-34
-4.420537030594147e-36
3.069507291550948e-36
-4.437277873457787e-37
2.991480480407041e-38
2.988409006222403e-35
-1.368797706607544e-38
1.272933594675372e-36
-5.862352825794381e-40
1.851301279626791e-38
-2.920202873150984e-41
5.673106402951306e-40
-1.088837934042149e-42
1.345081521321876e-41
-2.948484087162704e-44
1.753188485708889e-43
-5.936825244796892e-46
-1.408561595699293e-47
-9.718906833350918e-48
-1.60114432471752e-48
-1.212418547773572e-49
-3.894953179217771e-50
-1.065470719774602e-51
-5.660145309173081e-52
-5.82086518237266e-54
-5.24821757206676e-54
-1.469277126785807e-56
-2.858407221889035e-56
-6.821573060226551e-59
2.516859222704132e-34
-7.075875643335392e-35
3.468714393818619e-33
-1.354395301796548e-33
1.083564786668454e-32
-3.46840135339716e-33
-1.503492115918767e-35
-1.092538705367097e-33
-9.724874931436373e-36
-1.714099854656422e-33
2.669454933197257e-35
-7.667599399319598e-34
4.4599271522571e-37
-9.454571512770733e-35
-2.614183758033667e-37
1.557558823393059e-35
-1.478121858280637e-38
3.40112277899447e-37
-9.118303645682168e-40
1.354853503735579e-38
-4.220819949614391e-41
4.14065781193598e-40
-1.39434717923279e-42
6.738814115807665e-42
-3.339177657137461e-44
-1.349068400835205e-45
-6.329085805087105e-46
-1.592422749727548e-46
-8.995144934161121e-48
-4.33847078790837e-48
-8.915912971997978e-50
-7.105584255270869e-50
-5.457231625682728e-52
-7.37297291248596e-52
-1.535234669568503e-54
-4.472547244429341e-54
-1.183253532770938e-56
3.918334493100223e-33
-2.205257628910915e-33
3.464121372697786e-32
-3.309584676362452e-32
-1.237860503236929e-31
-4.359214055828653e-32
-7.798099181851038e-30
2.665104100931533e-32
-2.871249100183554e-30
-3.137525205365107e-28
-1.226223881188383e-34
-7.850245997019282e-28
3.355795890424504e-36
-3.007194213866167e-32
-2.53538180645714e-36
7.927003964651093e-50
-1.936455568700666e-37
3.091586435697201e-36
-1.534502044472734e-38
1.633110058052714e-37
-9.084071672486847e-40
6.600329141090276e-39
-3.762723766116792e-41
1.381233871879658e-40
-1.10022897969781e-42
-6.919161487104136e-44
-2.475147311137841e-44
-8.377826020226351e-45
-4.09282689308591e-46
-2.630146163690074e-46
-4.661619004176043e-48
-4.932438627816611e-48
-3.249074458805414e-50
-5.820117841443935e-50
-1.033074887717514e-52
-3.987119845552859e-52
-1.183452190181321e-54
0
-2.993257820896224e-32
-7.801896438371802e-32
4.498990109923476e-32
-1.782479279224578e-28
1.158551339285415e-29
-3.14199017171991e-26
7.81177090920159e-28
-3.090157015036766e-25
-1.24772626987434e-24
-5.324280900759062e-29
-2.693893235379511e-23
-5.409138977745217e-37
-1.050406924961077e-26
-1.205193381722901e-50
-2.147863586757788e-32
-1.448022914552436e-36
-1.148064346803676e-34
-1.491175607640508e-37
9.860872314605302e-37
-1.1618603837676e-38
5.4925353763775e-38
-6.268603474679982e-40
1.552409549088293e-39
-2.327888556876389e-41
-2.15160961807573e-42
-6.430341163375673e-43
-2.734577077893329e-43
-1.276055440997472e-44
-1.019085664434174e-44
-1.716541302526057e-46
-2.247838177118627e-46
-1.394966294754757e-48
-3.087381418304642e-48
-5.113330748037323e-51
-2.435952593191432e-50
-8.247295257614331e-53
-6.100314969163537e-32
3.107057148267312e-32
-4.846999805768592e-29
4.441312955569105e-29
-8.130575727770695e-26
2.131678039165921e-26
-3.938102498698971e-24
1.754162549196024e-25
-1.603699683729165e-22
-2.556873593286606e-23
-2.990273592504048e-24
-2.783489908731753e-21
-7.467075521509363e-30
-1.597096587540619e-22
3.346442246701175e-33
-2.982760342915364e-26
4.814998515664959e-35
-7.805519977569849e-30
-7.878007030417973e-37
-9.131325937249154e-51
-8.40356014882329e-38
1.931552115741415e-37
-6.28284138970694e-39
8.08471660754849e-39
-3.162204218386801e-40
-4.054769696810844e-41
-1.130362058487573e-41
-5.80009133951064e-42
-2.81216274577219e-43
-2.670172624159949e-43
-4.628619998214047e-45
-7.170483723688623e-45
-4.509387032741889e-47
-1.17828309344592e-46
-1.947806602442013e-49
-1.094220297469764e-48
-4.302540601003381e-51
-3.619022809419513e-31
1.505422169173709e-29
-1.262068207540908e-25
4.706720449497241e-26
-3.654620636013306e-23
1.186671515923617e-23
-1.64414637736698e-22
8.085940862076442e-25
-1.548805540572814e-21
-5.04802790850136e-21
-7.534879018513915e-22
-3.546532745540757e-21
-7.583923162404188e-25
-1.490285378677966e-20
6.676040159672762e-27
-5.623990477995331e-22
1.569290710241796e-33
1.399648494911889e-38
6.767914121730221e-51
5.084008063809824e-41
-2.721755895014288e-37
-2.684399716552856e-45
-3.120798392034235e-38
6.914420947854458e-50
-2.444707017777193e-39
-4.171183988614694e-40
-1.257468345257833e-40
-7.569229813393028e-41
-4.228209666282528e-42
-4.629887422744468e-42
-8.951565812936932e-44
-1.590125031842964e-43
-1.080178741339872e-45
-3.228667057843298e-45
-5.62262298564581e-48
-3.607990092945207e-47
-1.675795211172427e-49
7.265823477917237e-31
2.943323497677764e-29
-7.741794810820233e-22
3.819183514791106e-22
-3.500101146407353e-20
2.15532494638312e-20
-1.991677926585094e-19
-1.816245679021117e-19
-1.581540498766963e-21
-5.507763888141801e-18
-8.782853209017692e-21
3.758619974927055e-21
-5.83441850116254e-24
7.306328091700569e-21
1.452022602486833e-22
-3.2521784540671e-20
2.369324252273833e-40
1.452022602486825e-22
-3.679647025423054e-41
-5.877471754111438e-39
9.709393931143008e-46
-3.44383110592467e-41
-2.736896323555741e-49
1.007183271233462e-45
-3.788781132744039e-39
-8.491817413036634e-40
-5.625467942488333e-40
-3.897657559163471e-40
-3.480533976995171e-41
-4.300133201719544e-41
-1.111025128486375e-42
-2.212437792193888e-42
-1.814474474147486e-44
-6.063169904714855e-44
-1.20013076291354e-46
-8.59631767097194e-46
-4.88144089849368e-48
9.535428447606125e-06
-4.577014172753526e-05
1.919064807631503e-05
-4.600161439617466e-05
2.887279649071345e-05
-4.628199307913904e-05
3.865402165421104e-05
-4.661563039524242e-05
4.855464613475328e-05
-4.698747637223609e-05
5.859684892631188e-05
-4.739087876986434e-05
6.88060609829661e-05
-4.779674192680897e-05
7.920376672898887e-05
-4.815239535154968e-05
8.980664022925729e-05
-4.838460880509143e-05
0.0001006246395371197
-4.839106907327586e-05
0.0001116595082717188
-4.803084714198604e-05
0.0001229132294068537
-4.712938514069798e-05
0.0001343540776291171
-4.539099538073446e-05
0.0001458307291567654
-4.227319885921639e-05
0.0001570060324554173
-3.698352571615816e-05
0.000167377126855366
-2.862956185967891e-05
0.0001763752240466583
-1.63834134552119e-05
0.0001835954501556516
4.090383597771139e-07
0.0001891175918172935
2.183790790047908e-05
0.0001935570990659327
4.891216873969316e-05
0.000199815878433592
8.252999606547616e-05
0.0002198978487934046
0.000120874932411067
0.000154682921217274
0.000307348955122095
9.429743140657942e-06
-5.519987113109072e-05
1.897372495600788e-05
-5.554558181596852e-05
2.859607097886594e-05
-5.590432373970826e-05
3.832482953054793e-05
-5.634437227235923e-05
4.820044442757345e-05
-5.68630728475175e-05
5.826388926871138e-05
-5.745430278384958e-05
6.855912785223209e-05
-5.809195637089454e-05
7.913292243422253e-05
-5.872616135174538e-05
9.003658994110176e-05
-5.928824195611886e-05
0.0001013250492929483
-5.967948668958181e-05
0.0001130594297249107
-5.976517646774488e-05
0.0001253241797354546
-5.939406488201786e-05
0.0001381649481136176
-5.823166424863763e-05
0.0001514728894872411
-5.558101817547571e-05
0.0001649311206839422
-5.044163423638522e-05
0.0001780654700128997
-4.176381884854974e-05
0.000190411839842189
-2.872974540784203e-05
0.0002018091589428284
-1.098832059373668e-05
0.0002121464439744336
1.150058071750388e-05
0.0002232739415021252
3.778470389112046e-05
0.0002385644826520158
6.723937109619301e-05
0.0002609923871619566
9.844721610180255e-05
0.0001304121255872401
0.0002852634857781375
9.331463432305188e-06
-6.453130673314357e-05
1.875955091123233e-05
-6.49736403694725e-05
2.827916129532699e-05
-6.54239035004029e-05
3.792407588854363e-05
-6.598925400338817e-05
4.7746445855481e-05
-6.668540694943955e-05
5.780498720674434e-05
-6.751280401854495e-05
6.81650213900957e-05
-6.845194460333494e-05
7.890142709333305e-05
-6.946251325939162e-05
9.010309973292504e-05
-7.048985067439128e-05
0.0001018722771243501
-7.144858795012053e-05
0.0001143271611429846
-7.22199691487551e-05
0.0001276127196327204
-7.26795019238146e-05
0.0001417867358714963
-7.240550493878482e-05
0.000156710390692134
-7.050446867416369e-05
0.0001719781689038475
-6.570921021946284e-05
0.0001869563586075689
-5.674185289023755e-05
0.0002012978604875006
-4.307117141664545e-05
0.0002146963077619762
-2.438683475571098e-05
0.0002281487314312604
-1.952013672713294e-06
0.0002413570967680389
2.45762282610866e-05
0.0002554271008987922
5.316930910461917e-05
0.0002721493565071414
8.172505929464922e-05
0.0001078606940899511
0.0002947011930929246
9.199250481561295e-06
-7.373051033180717e-05
1.848406177459337e-05
-7.425840329835342e-05
2.786490486490941e-05
-7.480469573697789e-05
3.739020987293115e-05
-7.551450502386064e-05
4.712522505766956e-05
-7.642036378648958e-05
5.714555643075439e-05
-7.753307069424828e-05
6.753935154502893e-05
-7.884566607966287e-05
7.841159595081901e-05
-8.033467239925813e-05
8.988755765148257e-05
-8.196571353407374e-05
0.0001021119603765294
-8.367287671638735e-05
0.0001152435800804835
-8.535145899227189e-05
0.0001294215843116842
-8.685734535928582e-05
0.0001445734304261264
-8.755707285178793e-05
0.0001605709863132057
-8.650171124267354e-05
0.0001770445847646526
-8.218241978610596e-05
0.0001926311359634228
-7.232799719174831e-05
0.0002072874297009328
-5.749966931111818e-05
0.0002183791197421692
-3.390602770728153e-05
0.000231733103048256
-1.293171839752561e-05
0.0002498315392317074
7.617013199704999e-06
0.0002628920359637964
4.010852226850477e-05
0.0002776826761311715
6.693417903294828e-05
8.943458687944378e-05
0.0002961088073947768
9.047652680825371e-06
-8.277809597870018e-05
1.816184316510131e-05
-8.337252505736225e-05
2.737389516251376e-05
-8.401667596025281e-05
3.674863762852427e-05
-8.488917202129939e-05
4.63641028802994e-05
-8.60357482123991e-05
5.63109898838494e-05
-8.74798685804883e-05
6.669973408702869e-05
-8.923430948206581e-05
7.766138031145803e-05
-9.129620277693221e-05
8.933365325706255e-05
-9.363785625267456e-05
0.0001018490225216339
-9.618810804094179e-05
0.0001153171565219702
-9.881944618955105e-05
0.0001297581154122877
-0.0001012981667516104
0.0001446309622574892
-0.0001024294523672517
0.0001560047189143753
-9.161941480029338e-05
0.0001478414025969228
-5.793677223780146e-05
0.0001208720787081021
-2.173159160199659e-05
9.220244611896566e-05
-1.673201046200813e-06
7.517528322792553e-05
-7.55728978899989e-09
8.19286163444988e-05
-4.315032446255375e-26
0.000104726888882648
-1.673929831236771e-15
0.0001485349996048986
9.1409627564346e-07
0.0002070134162251571
8.266481587100793e-06
3.023857901584316e-05
0.0002666719157675178
8.885790605286407e-06
-9.16638047548433e-05
1.780582371654229e-05
-9.229247433592251e-05
2.682397921713457e-05
-9.303474516552922e-05
3.601843209555234e-05
-9.408353475998156e-05
4.547423846362114e-05
-9.549145916270255e-05
5.52868648089809e-05
-9.729239073056969e-05
6.557303625975119e-05
-9.952035898143404e-05
7.644760492720224e-05
-0.0001021706298956637
8.79994448943959e-05
-0.0001051895614794419
0.0001002751925037324
-0.0001084637292564262
0.0001120918701724622
-0.0001062035927851558
0.0001080742309202646
-7.539237904759211e-05
7.70860481212798e-05
-2.972658465377591e-05
3.382263077281831e-05
-2.160346492633766e-06
9.159040711174346e-06
-1.262036770102807e-06
1.655488206969808e-06
-5.564632794315609e-07
6.449123833358226e-23
-1.771283923100539e-08
1.110343900662024e-26
-7.557289788999825e-09
1.881872240121205e-31
-3.204588778985632e-26
2.210701813432842e-17
-1.6960368493711e-15
9.969797812837969e-07
-4.555766234983433e-14
9.300600829831365e-06
-1.561208776731764e-17
-4.570505080089479e-17
4.046285879471002e-05
8.705421458925402e-06
-0.0001003691417109992
1.739489264163664e-05
-0.0001009818579850815
2.616962550557644e-05
-0.0001018093951306977
3.511146666650413e-05
-0.0001030252912579271
4.42988687342672e-05
-0.0001046787751519155
5.381190780134277e-05
-0.0001068053287927524
6.372868452684631e-05
-0.0001094369755111743
7.243626957221197e-05
-9.819687447527401e-05
7.295488734445202e-05
-7.295913324387796e-05
5.941408888761326e-05
-3.995349869413499e-05
3.090116867531028e-05
-4.292026446128746e-06
9.201228753076037e-06
-4.650467387472077e-14
1.988311518816152e-06
7.558382322810655e-24
-3.66261764601663e-23
-1.720349738176145e-07
3.860353058602634e-12
-1.262040630455865e-06
4.619250967725638e-08
-9.740640397384734e-07
4.014113534624457e-08
-1.520456799240392e-07
-2.110145169712058e-14
-1.006834049099286e-10
-2.110017815799232e-14
-1.273540514572561e-18
4.555570858793974e-14
-1.125598080139931e-16
1.751005199755191e-22
-1.952781540957543e-18
-2.249375114576403e-23
-1.561175611065098e-17
-4.57047144105907e-17
-3.980440111358595e-23
8.28449473119642e-06
-8.503850922730523e-05
1.627101621392548e-05
-8.250315994233115e-05
2.380043825294632e-05
-7.667137996851844e-05
3.030434172879026e-05
-6.753179057214719e-05
3.464890808890396e-05
-5.519559897058353e-05
3.493912304373743e-05
-4.03046855117666e-05
2.892059229942298e-05
-2.770628681653808e-06
1.712549581795415e-05
-1.599312216880951e-15
7.58378954695232e-06
-8.90050159164388e-15
4.292026416862432e-06
-6.028643630792828e-14
-3.374630474114235e-23
-2.926631440301089e-14
-3.349891132797576e-31
-4.650467390846708e-14
0
-1.983065482819379e-31
4.327564561997673e-07
-4.647280607308442e-07
6.669827869608829e-07
-1.156660014131162e-06
7.738588975744669e-07
-1.187568668329448e-06
1.006833830504774e-10
-2.042121580190563e-07
-2.185950686142398e-17
-5.338181857382831e-25
9.494590311449695e-17
2.863685956913003e-16
8.939316092304583e-16
-7.030389103933593e-15
1.703507688240079e-16
-3.765612517026545e-17
3.949562349800454e-16
-2.245107714560186e-18
4.426596304286989e-17
5.248877394724233e-16
2.679262773598433e-06
9.892569279077337e-25
4.502460455348063e-06
6.388194925758492e-25
5.245860663180106e-06
1.076979667762501e-24
4.7988954298841e-06
-4.11070511768689e-23
3.284630230670595e-06
-8.951343125854206e-19
2.735348738463129e-06
-1.957385073470823e-16
-1.413245268868271e-35
-1.099237499799151e-32
7.750956747409881e-24
-1.599312028864197e-15
1.332048468808556e-32
-8.900501583892924e-15
2.471503733881763e-30
-6.028643630792828e-14
3.228365586054096e-14
-1.403621029779661e-13
5.58198519965852e-14
-1.409891384529696e-13
6.145600807824404e-14
-5.636156081658841e-15
3.906432103301783e-07
-1.14362668414252e-14
5.686614696297958e-07
-6.301318572965127e-07
2.775731285074896e-07
-1.434203529191796e-07
-5.437109283399459e-12
-1.664959645545948e-10
-6.087092943177211e-14
-5.376238353989336e-12
1.446776624823652e-13
-1.016813110440508e-12
2.090011230289099e-15
-3.132307240655952e-17
6.480590094140808e-17
-3.306923363992656e-17
4.600419483116398e-17
-5.188943667613127e-17
-1.017919049282416e-17
7.84244784902502e-17
-8.126789430735164e-26
3.741807760120622e-24
-1.023318621067623e-25
3.609064069950656e-24
-2.558125512861256e-25
1.369809622518943e-24
6.267520626867612e-43
-4.136286372815502e-23
-3.251708896465051e-36
-8.951343125854208e-19
-7.938719352814156e-34
-1.957385073470823e-16
8.768672013425553e-19
-1.098292287084649e-15
2.01544766271192e-15
-9.395888506329697e-15
1.17319460502317e-14
-2.576926447270796e-14
5.761530435852167e-14
-4.607002667272771e-14
1.335498573633461e-13
-1.458600012549673e-13
1.702203161313692e-13
-1.439701098807937e-13
1.260737858503961e-14
3.496866545659724e-15
1.171111743597204e-15
-1.531472133150699e-27
1.433381541934871e-07
-1.991388104423766e-09
2.51901050927651e-17
-2.013761236753977e-11
3.462686967206233e-16
-1.663830403270331e-10
6.486318074637934e-12
-3.150487398815799e-11
1.973505461516784e-16
-1.608987422292673e-14
2.086142807076007e-17
-3.02118364182617e-17
8.42381262893637e-17
-4.904713681331741e-16
6.894150750651569e-16
-3.729642837343654e-15
-3.225020961439578e-15
9.63559561144996e-16
-2.496787335950597e-25
4.907756550428528e-24
-5.302038777265574e-25
4.32508686387681e-24
-3.240032672843032e-25
-9.221555474971366e-26
3.214217114051378e-23
-9.022969760999871e-22
7.613216455043178e-19
-8.228746256468503e-18
1.907773208765961e-16
-8.877713620277823e-16
4.053479199432843e-15
-1.354916210184424e-14
1.305752502225775e-14
-2.481336547747168e-14
2.513256788263145e-14
-2.824150865879581e-14
5.522900641570405e-14
1.554924854062085e-14
1.504166667479679e-13
5.501075121248921e-14
1.867553619121019e-13
-1.404951201969543e-14
3.230914950594043e-27
1.903114360329118e-13
1.666918964219527e-26
0
4.348368911379418e-17
-1.991388147907455e-09
8.241848336069556e-12
-1.445323288374907e-10
3.987157927692272e-11
-2.869514759966155e-12
1.608532929769272e-14
-7.449664404962278e-13
-9.716610227596259e-18
-1.243104841141964e-18
6.012159234533773e-17
-3.258964574627599e-16
5.025612907712617e-15
-1.437181212081558e-14
1.855869260411681e-14
-5.404981261019249e-14
-4.436839900643679e-15
8.46280598772252e-15
-2.877392960703593e-25
4.05141640940879e-24
-5.614501735590618e-25
2.340947676143876e-24
1.005716994594086e-24
-7.328970812428514e-24
4.027931377756312e-20
-6.41293029558975e-19
4.398574503429425e-17
-2.469214496833056e-16
1.764311285559519e-15
-5.189809198772508e-15
1.094280743393526e-14
-2.518075290111623e-14
1.494832380232484e-14
-2.195301809080013e-14
1.735132426688355e-14
-9.117706765071047e-15
1.334217208998048e-14
6.07858871892364e-15
2.481161013736545e-14
5.723867950619635e-14
1.522339987047547e-14
-1.598952978635611e-14
1.900183267453181e-09
-4.043397721551825e-09
2.501704595819622e-09
-2.312910458127279e-08
3.72655227666902e-10
-5.045282674555203e-09
-4.955780604324237e-12
-8.086027400490044e-13
7.44961843739853e-13
-4.581089900641994e-24
-1.324090987412682e-20
-4.18956407684743e-21
1.581274950517158e-18
-1.103933675438551e-17
7.88104086378961e-16
-3.108324408322425e-15
1.839621382927515e-14
-4.10792145351169e-14
4.501267862545631e-14
-7.979709954162249e-14
-2.301601565580327e-14
4.342499232726252e-14
-1.940730575538341e-25
2.305062960095303e-24
-2.405309972712639e-25
-3.33124429617331e-24
3.421012107109105e-22
-1.054715754718821e-20
2.472192930625429e-18
-2.40590350754038e-17
2.908877766090654e-16
-1.143505104812472e-15
2.218070781723781e-15
-9.511795424865153e-15
9.572250882560522e-15
-2.503640726134738e-14
1.494603986180178e-14
-1.11834046723261e-14
1.546965544786025e-11
-1.544400874360237e-11
4.838352218869662e-10
-5.510151032950842e-09
2.979103543320953e-10
-3.141427548849557e-09
3.378307093583601e-09
-3.080399246760235e-09
2.030230993193251e-08
-2.300010384730714e-08
1.945418663254815e-08
-2.624754362144064e-08
8.080274582115305e-13
-3.228314344029859e-09
1.258660151746348e-26
-3.522162600398437e-27
7.138094110930828e-28
-5.167982342759923e-24
1.110972015615474e-21
-2.539232281106784e-20
4.767850888626292e-18
-6.981444357350554e-17
7.823365465059811e-16
-4.364401396174102e-15
7.832015236546943e-15
-3.574117066841597e-14
2.549485263798045e-14
-4.315434071385947e-14
-2.788117967294434e-14
3.136767004497165e-15
-7.969177228446142e-26
7.808463737995285e-25
6.954974116229185e-25
-4.831710266352962e-23
3.028419995339745e-20
-6.920106687614257e-19
1.695601753599249e-17
-1.168468124336883e-16
5.051795688112252e-16
-1.965604007062661e-15
3.437965387797003e-15
-1.07682093677691e-14
1.112346127907296e-14
-1.469577442481271e-14
1.240400016663073e-14
-1.150232589764799e-14
2.500577141510443e-09
-4.99888479808923e-09
6.502541950280175e-09
-1.780350696208127e-08
7.034108622574041e-09
-1.559406815124396e-08
5.451373150228151e-09
-4.539550772205049e-09
1.477560046733752e-08
-2.760522795159622e-08
6.382249611333175e-09
-1.070396614306495e-08
5.169878828456423e-25
1.913285107099458e-27
-7.057920657003104e-26
-9.492096027387791e-27
-5.676336205249389e-24
-1.015082202380532e-22
-1.540505342983349e-19
-1.402077951524381e-19
-1.158244698777244e-16
-9.802245156464653e-18
-1.755174232025409e-15
-3.46626654617174e-17
-3.063824810424863e-15
-1.390532527740206e-16
-7.269008666013923e-16
-1.063145540917768e-15
-5.30014193574807e-15
7.614817487230504e-16