/*--------------------------------*- C++ -*----------------------------------*\
| =========                 |                                                 |
| \\      /  F ield         | OpenFOAM: The Open Source CFD Toolbox           |
|  \\    /   O peration     | Version:  2206                                  |
|   \\  /    A nd           | Website:  www.openfoam.com                      |
|    \\/     M anipulation  |                                                 |
\*---------------------------------------------------------------------------*/
FoamFile
{
    version     2.0;
    format      ascii;
    arch        "LSB;label=32;scalar=64";
    class       volScalarField;
    location    "0.25";
    object      alpha.water_0;
}
// * * * * * * * * * * * * * * * * * * * * * * * * * * * * * * * * * * * * * //

dimensions      [0 0 0 0 0 0 0];

internalField   nonuniform List<scalar> 
2268
(
1
1
1
1
1
1
1
1
1
1
1
1
1
1
1
1
1
1
1
1
1
1
0.9992869466313862
1
1
1
1
1
1
1
1
1
1
1
1
1
1
1
1
1
1
1
1
1
1
0.9990743876035131
1
1
1
1
1
1
1
1
1
1
1
1
1
1
1
1
1
1
1
1
1
1
0.9990637724769653
1
1
1
1
1
1
1
1
1
1
1
1
1
1
1
1
1
1
1
1
1
1
0.9993030879569396
1
1
1
1
1
1
1
1
1
1
1
1
1
1
1
1
1
1
1
1
1
1
0.9999667228445324
1
1
1
1
1
1
1
1
1
1
1
1
1
1
1
1
1
1
1
1
1
1
1
1
1
1
1
1
1
1
1
1
1
1
1
1
1
1
1
1
1
1
1
1
1
1
1
1
1
1
1
1
1
1
1
1
1
1
1
1
1
1
1
1
1
1
1
1
1
-9.811852295617563e-34
-1.548989626814487e-32
-1.148038107488679e-31
-5.772129774104199e-31
-2.450766224572906e-30
-4.319535456796104e-31
-1.304449618680727e-32
-2.31823328723921e-34
-1.586184592206909e-36
-3.864779080199687e-38
-8.57455219981089e-40
-1.602818009685602e-41
-2.427327462309922e-43
-3.269986535131644e-45
-3.637824133620825e-47
-3.136414740319601e-49
-1.946195441413051e-51
-7.661300776833689e-54
-1.414300173235099e-56
-1.330613172488854e-31
-1.675097229928234e-30
-9.735592864494925e-30
-3.357447767944051e-29
-5.978671443406797e-29
-9.748174914463072e-30
-3.856092263765218e-31
-9.269328611582248e-33
-9.497274183312353e-35
-3.06069107795906e-36
-8.841879451049803e-38
-2.109471564501194e-39
-4.074049820955307e-41
-6.849321483073358e-43
-9.398270267671507e-45
-9.925759293183354e-47
-7.500106743770583e-49
-3.575434966190881e-51
-7.955653381660229e-54
-6.39099545227773e-30
-6.661186573338561e-29
-3.098424591627446e-28
-7.413209886179983e-28
5.132131304362712e-32
0
-3.585721259414968e-30
-1.473559167970593e-31
-2.333343403011105e-33
-9.490170823743452e-35
-3.470082761826245e-36
-1.015570292869169e-37
-2.332478185573221e-39
-4.541593763095288e-41
-7.095888361855786e-43
-8.462361817618598e-45
-7.168029949234494e-47
-3.806413246810583e-49
-9.386771689940101e-52
-1.52989346950681e-28
-1.152120322979079e-27
-2.960650591777258e-27
3.217942836212949e-27
2.399679299734947e-25
1.362035205354058e-26
1.541358108676025e-30
-1.201771696650278e-30
-2.93475045875335e-32
-1.567776917958035e-33
-7.475382630239794e-35
-2.768734817299913e-36
-7.800263103264445e-38
-1.805532895605794e-39
-3.293650673580117e-41
-4.523875097640866e-43
-4.36893960581861e-45
-2.621409769309331e-47
-7.246878673711278e-50
-1.765107958067732e-27
-8.183416660242495e-28
1.545170145193462e-25
1.693210728697746e-22
4.464256906683847e-21
6.74008326783791e-21
5.663167587868171e-25
-5.332342223820172e-30
-2.057744067069793e-31
-1.473780208125934e-32
-9.446218869524098e-34
-4.618166891947309e-35
-1.665510954256159e-36
-4.753557915036328e-38
-1.045028719092078e-39
-1.700187766158676e-41
-1.916726354914486e-43
-1.32492316926143e-45
-4.172249626539097e-48
9.358333408428938e-44
4.191754375633316e-25
3.363851175510292e-22
5.833067073908706e-20
1.023249530603964e-18
7.392504724302429e-18
7.735778591122429e-20
2.549593619804518e-27
-7.513620319766533e-31
-7.425912676897531e-32
-6.682158343810836e-33
-4.603362367002597e-34
-2.271597159200866e-35
-8.454983151759359e-37
-2.342026428726831e-38
-4.673894650454476e-40
-6.318971600133068e-42
-5.140069987978974e-44
-1.876778964133003e-46
3.790431118734952e-25
2.751178424820809e-22
1.440518801691267e-19
4.801510109563029e-18
1.463396810836532e-17
9.182046251746459e-17
5.828129931206888e-17
6.789693399362385e-20
3.329633244826354e-28
-1.573384387747351e-31
-2.097687141439598e-32
-2.271248574859588e-33
-1.771365194400662e-34
-9.572654755995553e-36
-3.594367049814437e-37
-9.221647345282754e-39
-1.541080792252793e-40
-1.506621973050748e-42
-6.484977482509612e-45
4.015741707938903e-25
1.767582654142973e-18
3.177912173490611e-16
2.881303157915948e-15
4.182415761897195e-15
9.194404891780027e-17
1.118535755918189e-15
6.607898069436745e-17
-1.006826083953685e-34
-9.273102932185917e-37
4.810209776179306e-40
-4.023076542355561e-45
-3.014321351496519e-34
-4.600966219081846e-35
-3.122056406215007e-36
-1.190522161932067e-37
-2.66364758056368e-39
-3.282922137312124e-41
-1.719040625064088e-43
1
1
1
1
1
1
1
1
1
1
1
1
1
1
1
1
1
1
1
1
1
1
1
1
1
1
1
1
1
1
1
1
1
1
1
1
1
1
1
1
1
1
1
0.9999993217664718
0.9999992079590987
0.9999995636689059
1
1
1
1
1
1
1
1
1
1
1
1
1
1
1
1
1
1
1
1
0.9999998846761892
0.9999992960348811
0.9999996020182107
1
1
1
1
1
1
1
1
1
1
1
1
1
1
1
1
1
0.991999002171176
0.9849769642083263
0.9984004012992828
1
1
1
1
1
1
1
1
1
1
1
1
1
1
1
1
0.9943676151675181
0.9275513262278462
0.7848931512601921
0.6148949719576482
0.4485144452989142
0.3611075838055525
0.3798076575347137
0.4569691570904507
0.6004641585355355
0.7963043083601711
1
1
1
1
1
1
1
1
1
1
1
0.9529267017491294
0.7937181181400215
0.4969536785400704
0.2163590523920373
0.01741586753568461
4.744713929116595e-20
5.049250144774753e-22
2.691468803650338e-39
7.037483533454904e-28
0.001646138278049194
0.0158259183867838
0.07533383930543978
1
1
1
1
1
1
1
0.9965694022115728
0.9512790704076625
0.8297133038155625
0.5811844745605437
0.2831667401712418
0.03295299732386518
4.330958852300178e-19
4.835960792249091e-20
2.238028675644456e-19
0.000141203093364174
5.439635759666024e-05
2.216905800171796e-22
1.9865901584806e-10
2.676061062748639e-18
9.811149923633441e-20
1.148223850843639e-19
0.9886895135137085
0.9847130950234605
0.9732375668879649
0.9488374779399384
0.9027687292107985
0.8234584345293048
0.6987031778792394
0.4838084339726314
0.2643910400425579
0.07652454872266731
-6.54541859283075e-20
-9.725567636051448e-28
-7.124397796672765e-20
0.001544327933295494
0.005555761382070247
0.005605629454876656
0.001183236860770356
-3.56914013087746e-22
3.048251822108474e-13
1.615986157492855e-12
4.195209323371827e-13
1.177355110119965e-12
1.533771059986761e-12
0.3881470365368721
0.3638148337276055
0.3137468596342496
0.2441649597816885
0.1630288114804241
0.08142076902678891
0.008274704189584261
-1.002096331955417e-19
1.037829523081663e-27
-3.125676019051484e-27
1.957061999493919e-10
3.980401977044633e-10
-2.940579022502518e-28
0.00350384384419223
0.006522652942054422
0.006128072051946578
0.0008175006354574723
-4.454528334887424e-21
6.518725374183236e-10
6.133977376972179e-11
2.986825802587198e-13
7.381497545780193e-14
2.26035966616865e-13
-6.826198175484367e-21
-3.658000970672589e-21
-8.876214686559318e-21
1.591613750711096e-38
-1.090662318782762e-32
8.917270564436351e-31
8.787886340665075e-29
8.839820203603136e-12
5.945178102798104e-11
3.316218588287298e-10
1.178371193479873e-09
1.358049933467318e-09
-5.619477607697591e-27
0
0.002028407920332909
4.975524770952276e-12
3.211954707043429e-13
8.128868728459649e-08
7.559556005028807e-09
1.256131964265611e-13
2.255313309247838e-13
1.946219200316563e-12
2.016397996279944e-12
-2.905736697042592e-20
-2.832224473180019e-20
-1.152616548448892e-20
1.222275517132775e-19
4.201420711972425e-15
1.158116636545383e-12
2.576431404445715e-11
9.189997757812096e-11
1.772953289130468e-10
3.769192029241195e-10
1.076764414742977e-09
1.395797105377326e-09
2.452294604604606e-14
2.091107197066098e-22
-7.526761239505871e-23
5.342567957159381e-08
8.467094173897165e-07
2.799270839079706e-07
5.654081005900106e-15
2.242946468950715e-13
1.988917817350701e-11
9.922834251397883e-11
3.407942369207405e-11
-3.707563817843315e-20
-3.295012227243157e-20
3.370980416259372e-36
2.621174282751749e-16
3.246390938737715e-13
1.308515325980069e-11
1.068019304423277e-10
1.537783908600789e-10
1.764816697326216e-10
1.309297935884006e-10
1.145569312223444e-10
1.22141670644402e-10
6.325639879925569e-06
1.384819928206342e-05
9.460840100958139e-06
7.535761975439503e-07
2.250689868225217e-08
9.519547451228779e-18
8.472979448571292e-15
6.082198318106496e-12
1.495434714169988e-10
4.122281616663212e-10
2.791399564903962e-11
-2.940994591957503e-20
-1.832568020695852e-20
3.226937979636129e-18
2.666203263668146e-14
3.083090174493088e-12
3.866936562802926e-11
1.475542660358549e-10
1.098493073256819e-10
1.228395043024194e-10
3.015237829549055e-06
1.413573784889296e-06
1.145569312224079e-10
0.0001598159001621967
0.0002167000653326572
3.750587824821524e-05
4.111961497517738e-23
5.022503264760069e-23
1.526378357524825e-17
1.623404910131424e-13
2.313164661278977e-11
2.573589819490208e-10
4.834905333744455e-10
1.087587740005749e-10
-1.623388194303858e-20
9.254844221106363e-21
5.67978439822935e-16
3.041274642254629e-13
8.240940532064586e-12
5.562461707209759e-11
1.40308324146702e-10
5.764539644473394e-11
1.416691886860297e-06
8.634760575112648e-05
7.906934419047726e-05
2.574639578208625e-05
0.0002388726983637284
0.000237715715977546
1.655162979157683e-05
4.953080178687117e-23
1.808186686635092e-20
3.669196564765863e-16
4.671510003317838e-13
2.910282231740479e-11
1.577473751692262e-10
2.420529545391381e-10
1.295090160705739e-10
-5.551923688138315e-21
2.987104346104572e-18
9.580591788505542e-15
8.697657011828772e-13
1.133684135189151e-11
5.897110078393996e-11
8.587223660659489e-11
5.818545228298116e-11
4.269934058476176e-05
0.0001178718307156585
0.0001156524124906261
3.761881405139454e-05
0.0001740004278916638
1.387936075832081e-05
-3.130644518489806e-23
1.804762352935272e-22
5.933192203321954e-19
9.523475280515856e-16
4.006972655438052e-14
1.243763902656416e-13
1.176493897999119e-13
2.784992297018186e-12
1.665561810754332e-11
6.958125428296046e-22
6.447500500328705e-17
3.306288871432925e-14
1.262402363471522e-12
1.180599845562359e-11
3.518399287956421e-11
4.015256897104194e-11
7.523898432663937e-07
6.065422880455604e-05
9.098536263814587e-05
3.132452282651871e-05
3.435512750213142e-08
-2.293023025758383e-22
-4.38768796402927e-22
-8.667424425841706e-39
4.245689485082496e-21
6.057866942581456e-19
4.346833764730963e-18
6.474258277016075e-18
2.090999457113118e-16
1.954653162853743e-13
4.112646736903232e-12
9.015947616525842e-12
2.862152040840787e-20
2.387505436669978e-16
4.630020449344676e-14
1.439000761596961e-12
1.024010516035894e-11
1.026489230783579e-11
4.900503087778339e-08
2.392666426503582e-06
4.940190820993717e-06
0
-3.105224795061797e-23
2.043395451421599e-28
-6.933180851168465e-22
-4.40246960630836e-22
-4.124089383597476e-23
-2.571735939778909e-23
-1.231948404470656e-23
2.501956843496773e-24
3.221467222112437e-21
5.750087653460466e-19
3.545738185714736e-16
4.409685256742285e-14
1.671097975684693e-12
1.277329448036311e-19
3.259733747698841e-16
4.307505488786125e-14
1.441255279768454e-12
1.696224875318474e-11
3.314592885406855e-10
1.498132082763409e-07
2.899258215061897e-07
3.460094148000636e-24
6.407996035785027e-24
2.282352650229496e-10
7.507991007640327e-10
0
1.758420493137278e-21
-1.92085048865317e-23
-9.898009139099605e-24
-1.800676909174525e-24
4.37992671159588e-23
2.419272208580752e-20
7.947153652496265e-19
7.339651713585234e-18
7.815812794328762e-16
1.06054573967813e-14
1.847160564332503e-19
2.263427713100309e-16
1.581566795512078e-14
1.965123683163057e-12
1.30685222549897e-10
4.864089803271284e-09
3.186770906773049e-09
-4.974997294381097e-25
1.391580784045268e-07
6.7582963987401e-07
6.232635784718062e-07
3.067532114161217e-10
-1.850785210759863e-34
1.404093015596124e-16
-8.120010410324954e-24
-3.86072555344663e-24
-1.357715594389217e-24
8.339483900257708e-26
8.362230600323069e-23
1.823969639288064e-21
6.946008084306125e-21
4.072170226100954e-20
1.063720738132196e-18
7.687057463130014e-20
4.496657481986059e-17
1.788125532005513e-14
6.990707639347774e-12
8.45717596077301e-11
1.938464566143483e-11
1.199061131594576e-29
-1.9524877704727e-25
4.577837899957093e-07
1.262499321930177e-06
1.263990265035506e-06
0
3.116369798991689e-30
5.00316303320195e-13
-3.44766687747752e-24
-1.473270423771051e-24
-5.289333068282269e-25
-4.242971260328862e-25
-5.584420044317433e-25
-5.624029255045675e-25
-2.900954835234417e-25
1.676896493266331e-26
7.09278718386992e-26
4.085802587813664e-21
1.847466741239798e-17
1.938267953329663e-14
3.708145158228989e-13
8.399395880345766e-13
1.081235137420744e-12
6.591110187895014e-12
-4.090280853424509e-25
1.910417623873677e-07
8.819312839043773e-07
6.371648358434566e-07
7.040237414686131e-27
3.356169617778997e-11
5.564303467893606e-11
-1.72463733358434e-24
-6.414041099661165e-25
-1.589831688732768e-25
-7.215333859870718e-26
-1.059222303961033e-25
-1.512746455204114e-25
-1.655910362036205e-25
-1.233860963842018e-25
-5.2062648504396e-26
2.109332828308347e-21
8.248097838706568e-19
8.626036472270914e-18
1.299324618148222e-17
2.915696359007264e-14
2.994651292501072e-12
1.824562958828925e-11
2.227510884507673e-11
3.179122120810182e-31
5.019056557835841e-25
-1.26438506523731e-27
1.203848281163405e-09
2.507792856000877e-09
4.903508270507616e-10
-8.712824666231359e-25
-3.549665309333512e-25
-6.562235570453175e-26
-9.679847027819866e-27
-1.258596718969134e-26
-1.966046369677665e-26
-2.531950494249002e-26
-2.391792755663873e-26
-1.436156598887692e-26
-3.938741255763925e-29
6.652558393150346e-29
2.535581701439472e-23
3.595026604621464e-18
1.802920604276108e-14
2.09089888766673e-12
1.52984865753496e-11
2.019331701797406e-11
8.862760250787627e-14
1.248395075957919e-13
2.663804442946821e-10
3.688473454854814e-09
5.575550133423484e-09
1.106249245949941e-09
-1.197615882861545e-35
-2.031037434128262e-25
-3.344146103383721e-26
-1.214065818070312e-27
-1.156267552765604e-27
-1.83851335755993e-27
-2.594181067094213e-27
-2.811338289670925e-27
-2.085140729162709e-27
-1.580157283971745e-29
1.145952988426038e-42
9.802986305013073e-25
5.962146807396481e-20
1.218309708332181e-16
1.281299295482992e-14
1.464134977141612e-13
3.439565474605038e-13
2.912065017007439e-13
1.691762027124269e-12
8.999825603280716e-11
5.333458659902379e-10
9.950835778481503e-10
4.124397940198495e-10
4.845279220865091e-18
-9.394750827970811e-26
-1.533691143777004e-26
-1.523713967820273e-28
-8.881794923617761e-29
-1.346312160281049e-28
-2.025539950739941e-28
-2.426921073080985e-28
-2.095267464176025e-28
-4.95901717794657e-30
-9.057970016816118e-29
-7.839556746922681e-28
-4.242952127948836e-27
-1.604124451171224e-26
-4.499028247477788e-26
-9.708326523311969e-26
-1.644026926948231e-25
-2.193420803980314e-25
-2.267894336130131e-25
-1.712282411227033e-25
-7.753235628888927e-26
-1.944809428545317e-34
1.634882148018129e-17
4.943161746386234e-12
-3.157372417604099e-26
-5.090872485590371e-27
-1.862688421463305e-29
-6.050972231121063e-30
-7.881888946117346e-30
-1.23704880401322e-29
-1.610922574744467e-29
-1.569071987224974e-29
-1.81967834728971e-31
-3.937677567682369e-30
-4.041018950038309e-29
-2.601476190131314e-28
-1.181145088274941e-27
-4.02960717725741e-27
-1.073848908656068e-26
-2.290087429455636e-26
-3.961801245430705e-26
-5.588883257414877e-26
-6.42850796515479e-26
-6.041231592183491e-26
-4.72783421581751e-26
-3.214645603227057e-26
-1.885085195765503e-26
-7.650368633814043e-27
-1.083522140051693e-27
-2.017299082377019e-30
-3.848524778411881e-31
-3.774504367908363e-31
-6.001328005214498e-31
-8.407689633024301e-31
-9.072136204035682e-31
-3.06114136832831e-33
-7.843779950004746e-32
-9.522517154906685e-31
-7.266473799902185e-30
-3.923228539252015e-29
-1.599272377679226e-28
-5.129134958435243e-28
-1.330711265268593e-27
-2.844761324140613e-27
-5.062537798022939e-27
-7.511524149590276e-27
-9.209731164919766e-27
-9.116862582603913e-27
-6.963995352479964e-27
-3.768296888809767e-27
-1.207879395233688e-27
-1.369684878399035e-28
-1.79112445235293e-31
-2.306446313822075e-32
-1.523249737675118e-32
-2.34046259570234e-32
-3.49975183166033e-32
-4.15024106363465e-32
-3.398255960350985e-35
-9.853721010413347e-34
-1.356990792848132e-32
-1.179486417985909e-31
-7.28387211451999e-31
-3.40869647493944e-30
-1.2584599106037e-29
-3.763602981113791e-29
-9.271965809953228e-29
-1.897469978942849e-28
-3.224033410023184e-28
-4.497594627319085e-28
-5.020311411216404e-28
-4.27274046104227e-28
-2.535542441383376e-28
-8.700773535777937e-29
-9.851529022492516e-30
-1.219765712399616e-32
-1.218710191522075e-33
-5.36972159971457e-34
-7.436528276832329e-34
-1.176644864579949e-33
-1.530313310134037e-33
-8.936602804341453e-38
-2.918855182090848e-36
-4.529919260173762e-35
-4.445238029610207e-34
-3.104077160335651e-33
-1.643991387696936e-32
-6.867169295048884e-32
-2.319759318429495e-31
-6.435002141108509e-31
-1.476507796292346e-30
-2.800333375659049e-30
-4.348666664848449e-30
-5.417668492055427e-30
-5.224593538203125e-30
-3.669049116490813e-30
-1.674148973697542e-30
-3.753786314447914e-31
-5.99789175537655e-34
-5.267203282724782e-35
-1.71427270526391e-35
-1.953126863785186e-35
-3.208301530653795e-35
-4.561624978790125e-35
-5.402256657537873e-43
-2.804457671113978e-41
-6.971184870856649e-40
-1.107145620906142e-38
-1.26349360283584e-37
-1.102976949710823e-36
-7.645482213479974e-36
-4.306040541992651e-35
-1.996918739626241e-34
-7.667765380468389e-34
-2.433744116280525e-33
-6.324191151401771e-33
-1.319234296108519e-32
-2.134569310382825e-32
-2.523921340408356e-32
-1.946166537948729e-32
-7.373292496614866e-33
-2.039920643880325e-35
-1.755977381543814e-36
-4.895867419111773e-37
-4.309746777205444e-37
-7.126537044676278e-37
-1.10300475150607e-36
-1.402478537030561e-45
-8.082493787790391e-44
-2.225123370542689e-42
-3.90537592497929e-41
-4.910638709819546e-40
-4.704231427236292e-39
-3.560121017890971e-38
-2.175771454577589e-37
-1.087269543244516e-36
-4.464666240241951e-36
-1.50351246831734e-35
-4.11273956076241e-35
-8.96375943110327e-35
-1.50516440992765e-34
-1.836486033584631e-34
-1.455422322250385e-34
-5.669930975844966e-35
-4.701665161420043e-37
-4.386417629733562e-38
-1.218475392316967e-38
-8.145344958334603e-39
-1.297950336641448e-38
-2.172190966723333e-38
-1.273573536800469e-48
-7.981354097673829e-47
-2.377596752659053e-45
-4.492913887454482e-44
-6.047910423879047e-43
-6.163340225660513e-42
-4.928764945749141e-41
-3.161248049480182e-40
-1.646792963428177e-39
-7.004968548523988e-39
-2.429892579146806e-38
-6.814463303634605e-38
-1.517512176713578e-37
-2.599588120887866e-37
-3.241322526536698e-37
-2.649918334762225e-37
-1.112002364946331e-37
-6.870810073301468e-39
-7.930820950477718e-40
-2.478065868527184e-40
-1.340034210690687e-40
-1.953763133075504e-40
-3.496301822113178e-40
-9.396381188635202e-54
-6.085980570896862e-52
-1.941771040473027e-50
-4.094400361467107e-49
-6.41516062501017e-48
-7.919768818949766e-47
-7.949259121674385e-46
-6.596417122096473e-45
-4.562314548900801e-44
-2.636340526339172e-43
-1.269887251895381e-42
-5.06282438761137e-42
-1.649085569973471e-41
-4.296754451633627e-41
-8.659280893126021e-41
-1.277259470175989e-40
-1.249026786885813e-40
-6.564109752521675e-41
-1.024349088590225e-41
-3.975361943858135e-42
-1.92462796660495e-42
-2.457552472078418e-42
-4.621533140171195e-42
-7.600269235967864e-57
-6.642160112901685e-55
-2.759949952583917e-53
-7.296735234533883e-52
-1.3796870685948e-50
-1.9845001544624e-49
-2.252324325789787e-48
-2.063174203709179e-47
-1.546145229381168e-46
-9.544300955206873e-46
-4.858537408341244e-45
-2.030396715636226e-44
-6.890486963602722e-44
-1.863032291485166e-43
-3.890439929394107e-43
-5.964468945091636e-43
-6.154548612924997e-43
-3.644577693938998e-43
-1.014189592598312e-43
-4.972207325830378e-44
-2.389284569667984e-44
-2.61123689462262e-44
-5.016073782889048e-44
-8.496636083803383e-60
-8.045712007279448e-58
-3.604121745325829e-56
-1.022233903475566e-54
-2.062990028604097e-53
-3.150424298584756e-52
-3.776202018718438e-51
-3.634446254683207e-50
-2.847998120293338e-49
-1.830396292623971e-48
-9.666243277366605e-48
-4.180109984387381e-47
-1.466682455652787e-46
-4.108081019333813e-46
-8.952977259693883e-46
-1.460906254387062e-45
-1.691359039625957e-45
-1.319779419376494e-45
-7.621866681149151e-46
-4.820875109698123e-46
-2.501200646011186e-46
-2.35834688668324e-46
-4.471039503094774e-46
-4.785018790971188e-63
-4.828319375976417e-61
-2.29368691184467e-59
-6.870432384946708e-58
-1.45878789529434e-56
-2.336258968262457e-55
-2.92936001739012e-54
-2.944633258315329e-53
-2.408951814670908e-52
-1.618138354111911e-51
-8.960147377849068e-51
-4.088733800936304e-50
-1.53100267060976e-49
-4.666966175318609e-49
-1.145904283268517e-48
-2.242621960047448e-48
-3.485789413120569e-48
-4.35748108510493e-48
-4.459667814119522e-48
-3.586873767962811e-48
-2.135624655428164e-48
-1.821063324494307e-48
-3.263173479957449e-48
-9.721214972409687e-67
-1.036051650716486e-64
-5.181765218949764e-63
-1.631184020508222e-61
-3.639383226607747e-60
-6.139012704327856e-59
-8.155346020987815e-58
-8.777439207997031e-57
-7.815276152553188e-56
-5.848017153128772e-55
-3.719927481512098e-54
-2.025890029450407e-53
-9.467738618345961e-53
-3.784937661632611e-52
-1.282685729082622e-51
-3.62843034754974e-51
-8.373541554053391e-51
-1.525863618280529e-50
-2.097333920621036e-50
-2.05729667922947e-50
-1.456224005919092e-50
-1.182228584658776e-50
-1.939547903956519e-50
-6.12870936732067e-71
-8.141915207782648e-69
-5.17648663489915e-67
-2.108823677591608e-65
-6.178875389318629e-64
-1.38326023744468e-62
-2.452742004509312e-61
-3.524569037751488e-60
-4.166868594580026e-59
-4.093035951358162e-58
-3.360852507903247e-57
-2.313799058338932e-56
-1.33586576426796e-55
-6.450426056403383e-55
-2.589107332129247e-54
-8.548330541453862e-54
-2.283427857984113e-53
-4.813035578902715e-53
-7.723799900133983e-53
-9.036147058932051e-53
-7.672750481894447e-53
-6.283877045348633e-53
-9.263908467486687e-53
-3.201377548217185e-74
-4.903343469652173e-72
-3.526504459816233e-70
-1.598558931104138e-68
-5.13982045693514e-67
-1.248831740458774e-65
-2.383939712615344e-64
-3.668721922671117e-63
-4.632973895870888e-62
-4.860320123141086e-61
-4.270639793651458e-60
-3.158125575893846e-59
-1.968709536624453e-58
-1.032839451791475e-57
-4.536004070331938e-57
-1.651639189612337e-56
-4.912203998477153e-56
-1.167935693243537e-55
-2.155368582169653e-55
-2.976497466976639e-55
-3.014382514870143e-55
-2.614008810120035e-55
-3.458097883081273e-55
-1.864666880159697e-77
-2.987309519720237e-75
-2.24664263199065e-73
-1.065802932147533e-71
-3.591885226281459e-70
-9.168330600415171e-69
-1.844115948311409e-67
-3.001137320999221e-66
-4.024500884878525e-65
-4.503432643468885e-64
-4.240122494788719e-63
-3.374672779510691e-62
-2.273412893453789e-61
-1.293897813991309e-60
-6.189541749200242e-60
-2.467076837257885e-59
-8.089301606495893e-59
-2.142812518689302e-58
-4.471071228427695e-58
-7.105159673304312e-58
-8.357248919180871e-58
-7.90914679810912e-58
-9.52415379137173e-58
-7.237611330176871e-81
-1.225422624201813e-78
-9.745771313967541e-77
-4.898361082789306e-75
-1.752865807749878e-73
-4.761539723764415e-72
-1.021420436821668e-70
-1.776092302390084e-69
-2.548358826227882e-68
-3.053729291168863e-67
-3.080028458608664e-66
-2.626163066269729e-65
-1.895616169039667e-64
-1.156924303383844e-63
-5.94707928062628e-63
-2.55735015593154e-62
-9.103260601483302e-62
-2.640702416242644e-61
-6.10120057150026e-61
-1.088234303048174e-60
-1.454344160874393e-60
-1.516079965478537e-60
-1.700238444076332e-60
-8.196273675764822e-85
-1.527319206143455e-82
-1.336737717533638e-80
-7.392419295181704e-79
-2.90931666859215e-77
-8.6844576653852e-76
-2.044520850591747e-74
-3.894721431211039e-73
-6.109147097532377e-72
-7.985645059482672e-71
-8.769246507973631e-70
-8.130554603416361e-69
-6.380714115583185e-68
-4.239116277763762e-67
-2.378595243476332e-66
-1.121180535874125e-65
-4.398204142649265e-65
-1.414780724352133e-64
-3.650566451007655e-64
-7.330812890381527e-64
-1.107777569679592e-63
-1.261671659628384e-63
-1.335079011713004e-63
1
1
1
1
1
0.9999999889932766
0.9999829368000595
1
0.9999999881802778
1
0.9999998241961227
0.9999961851900266
1
1
1
1
0.9591849472365608
1
1
1
0.1584330766289217
0.2477381006020906
0.3382955299448389
0.4438242020611544
-1.809288168523273e-19
-1.329597067612657e-18
-2.948933406446515e-20
0.000448475416308021
1.510791158905911e-12
1.44929031928199e-12
1.235989327605083e-12
-4.117027100035501e-21
4.718817593558197e-13
5.746630689602519e-13
5.420410756734935e-13
2.125986669078689e-13
1.628262632556326e-11
1.498553369150394e-12
-7.279285826996947e-30
3.27006634142225e-34
2.24211391579629e-09
9.28712801748185e-14
8.589633823711238e-09
4.142952699627962e-08
3.540181377090147e-09
1.340245817453825e-08
1.858729967862344e-08
4.306214232203233e-06
7.421426071114996e-12
4.79806754479677e-12
3.220719563139701e-06
6.021788990941911e-05
9.100591149624906e-12
5.453271551558408e-12
6.615570770897526e-05
0.0001285846672441301
1.670407676129358e-11
8.327256178775414e-12
9.053720910449181e-12
9.873295607470407e-05
1.198889364264453e-11
1.770637992100994e-11
1.3833653325758e-11
1.349281885961789e-11
2.018275291254815e-11
3.589421651375864e-11
2.829141301809796e-11
9.798768530838496e-12
1.476401468842988e-14
6.907510386308685e-17
-4.873241998016573e-28
-3.353165999232954e-27
2.030233073759528e-18
2.381069040113537e-19
-5.322000156441844e-31
1.390528393936471e-29
-9.747386623817625e-28
-2.105072682227192e-28
-4.814622178858262e-30
6.175155586197032e-49
-5.369018383884792e-27
-1.029819251106995e-27
-3.564495941107637e-29
1.453532522904096e-21
-3.367825906796986e-27
-1.047780906516532e-27
-1.693490985781874e-28
1.322003836043689e-38
-7.960032329132468e-28
-3.460823948722712e-28
-8.910078652791718e-29
7.287217436564902e-42
-1.116781618938091e-28
-6.675949110567914e-29
-3.406971037517743e-29
-1.12354292805343e-29
-1.040614543530092e-29
-7.322591945880982e-30
-4.947555634475178e-30
-3.250979307476157e-30
-7.057361675336487e-31
-5.489020339044577e-31
-4.218092760463103e-31
-3.243189607263445e-31
-3.695791978080803e-32
-3.103930461243847e-32
-2.595022025931482e-32
-2.208463282745299e-32
-1.538761145126112e-33
-1.384074682119442e-33
-1.243783253416294e-33
-1.135207631304021e-33
-5.126868349718698e-35
-4.907260998401487e-35
-4.713564295289173e-35
-4.584469170156166e-35
-1.378754693825711e-36
-1.400183905591226e-36
-1.432144231070393e-36
-1.482409875521028e-36
-3.008521881668748e-38
-3.237511070212479e-38
-3.523434551054009e-38
-3.925014262390773e-38
-5.341838035340275e-40
-6.088230714744392e-40
-7.045116553934589e-40
-8.429638057081033e-40
-7.785231572234342e-42
-9.451087211531845e-42
-1.155628016176071e-41
-1.469795719670737e-41
-9.214768621386069e-44
-1.191458295124795e-43
-1.543076915035337e-43
-2.079758382666676e-43
-8.833727323573992e-46
-1.213712677730103e-45
-1.664966345391772e-45
-2.377535177375356e-45
-6.811391223602409e-48
-9.912640755238003e-48
-1.439382950880358e-47
-2.176930426074198e-47
-4.178563645804708e-50
-6.410675291341073e-50
-9.836675211678697e-50
-1.574309118934052e-49
-2.001912653972324e-52
-3.216186285819092e-52
-5.200403273535568e-52
-8.794339279180773e-52
-7.254786522138855e-55
-1.209407750871459e-54
-2.052878922860176e-54
-3.660302044383995e-54
-1.874859906633625e-57
-3.204084534878418e-57
-5.684919763480363e-57
-1.066091964109632e-56
-3.045520668793887e-60
-5.257713411789922e-60
-9.739439364872213e-60
-1.918480752747559e-59
-2.15597031003213e-63
-3.695517033889629e-63
-7.14859661039803e-63
-1.506910886132644e-62
0.272433460472166
7.133633589659333e-19
1.151868852694552e-15
8.030801976994517e-14
6.007871052118053e-13
2.955032516169602e-13
4.517318573547954e-15
8.485998827857896e-16
9.884324366351737e-17
1.655768634161998e-18
1.840372390230554e-21
4.747422367259788e-26
2.906551770009418e-31
2.591115640980673e-37
-1.349228986420314e-35
-1.139158168785704e-36
-4.013534782609413e-38
-6.909525314544891e-40
-4.760939104609362e-42
0.9767409024712045
0.4762231103832346
0.0004794793277785269
6.599443678715438e-16
1.86341582757437e-12
2.257865615313291e-11
8.522134063662729e-13
8.439938953412034e-16
1.832545146894055e-15
3.363823621796685e-16
5.31157132885308e-18
1.228849681125394e-21
7.307923113968687e-27
3.476411883142545e-32
1.444480838876499e-50
-1.590386524255e-35
-9.343998851310612e-37
-2.330039856482477e-38
-2.195288349507737e-40
0.9999640055081119
0.9931713661680933
0.6592823813757425
0.05261706489131875
1.957961860779989e-12
9.161947038185534e-11
3.00856038615795e-10
4.788392013183512e-11
1.852925441575394e-13
2.870899293181041e-15
1.742064057815078e-16
3.331688765387434e-19
1.683057941281755e-24
4.474960348057441e-30
1.44383403622882e-35
-1.651095288083208e-34
-1.442315468254703e-35
-4.68858247458647e-37
-5.541155752040801e-39
0.9998573444615253
1
1
0.7519575685782608
0.09535008636978581
1.022497929209017e-10
2.527118731207564e-09
3.322419897648869e-09
4.637218353498127e-10
1.078826111540598e-12
2.392551472344208e-23
2.589277502440608e-22
2.991910906317535e-24
5.375450240310518e-28
1.123195824717481e-33
-1.179452219668559e-33
-1.280102347656297e-34
-4.892238211640709e-36
-6.657202512199063e-38
1
1
1
1
0.63868508265987
0.03278733288180619
2.86175897143658e-09
9.620620740223077e-09
5.249310564376232e-09
1.497102684207191e-10
3.812240719499982e-23
4.581214139207483e-22
5.139710532615353e-23
1.138129019897401e-25
8.614341069414932e-31
-2.178711577778079e-49
-1.053422178972234e-34
-6.135281147748637e-36
-1.073780586456845e-37
0.8814704022867111
1
1
1
1
0.3446412493048781
3.200085536404153e-09
6.687950284105221e-09
8.022237041821994e-09
1.784311175277606e-09
6.280459200442338e-12
4.790884363750212e-22
1.344051776038764e-21
2.259431275200775e-23
5.202888723485227e-27
2.118279338382632e-32
-1.805601048595623e-51
-2.231784025830259e-36
-5.230090963803077e-38
0.07153217577279872
0.4045264847006643
0.950045818407938
1
1
0.8060852524381974
0.09922879643996307
8.851138968372877e-10
1.397333877307122e-09
5.816611102169778e-10
1.760411348830989e-11
6.118995856821822e-15
2.031688926800623e-20
2.267112038050407e-22
1.08058775792957e-24
8.322600135357765e-29