/*--------------------------------*- C++ -*----------------------------------*\
| =========                 |                                                 |
| \\      /  F ield         | OpenFOAM: The Open Source CFD Toolbox           |
|  \\    /   O peration     | Version:  2206                                  |
|   \\  /    A nd           | Website:  www.openfoam.com                      |
|    \\/     M anipulation  |                                                 |
\*---------------------------------------------------------------------------*/
FoamFile
{
    version     2.0;
    format      ascii;
    arch        "LSB;label=32;scalar=64";
    class       volScalarField;
    location    "0.25";
    object      p;
}
// * * * * * * * * * * * * * * * * * * * * * * * * * * * * * * * * * * * * * //

dimensions      [1 -1 -2 0 0 0 0];

internalField   nonuniform List<scalar> 
2268
(
98499.35732697828
98500.19140397858
98497.9846826298
98494.05516470535
98488.7121561697
98481.99273844427
98474.05145774041
98465.19132796155
98455.82731985445
98446.5023689065
98437.93480358791
98431.07350405597
98427.15816786462
98427.78486049362
98434.96735314885
98451.16011458964
98479.16822890544
98521.90633905579
98581.74435549826
98659.18212483828
98750.77845637621
98844.21153510713
98936.17153045387
98439.1851224811
98439.9870307134
98437.73181000985
98433.77234690213
98428.37462451513
98421.57876328308
98413.55044075484
98404.59271998494
98395.11848860231
98385.6706359644
98376.96832415882
98369.96065194372
98365.8848238371
98366.32759322345
98373.27992501594
98389.1503662217
98416.68756967182
98458.8502033003
98517.98672690615
98594.88778362844
98686.77513419364
98781.58067701329
98878.15659506121
98378.33061482964
98379.0988992749
98376.78773921091
98372.78961982632
98367.31387479791
98360.40328763021
98352.23569232134
98343.11238512186
98333.44111825014
98323.76149405769
98314.78971687336
98307.47020940042
98303.03064330558
98303.03777849466
98309.44517558912
98324.59762926926
98351.09583381948
98391.80687548193
98449.08696647205
98523.76667462017
98613.52496257905
98706.38538766323
98805.43820368264
98316.6796860779
98317.38444819649
98314.97500253198
98310.88717966153
98305.2702123261
98298.16876520666
98289.77070796568
98280.37371993405
98270.37829250461
98260.31814752299
98250.90366165218
98243.07147455434
98238.03538001238
98237.33458797162
98242.87182679262
98256.90152304887
98281.79314975668
98320.37497364801
98374.64661328573
98445.3332875917
98530.32139573952
98617.66820753702
98717.12241649373
98254.31629514748
98254.94756559943
98252.41399963429
98248.19607376546
98242.38615065943
98235.02961004786
98226.32054520528
98216.55073964405
98206.11107224072
98195.52605570843
98185.49624670441
98176.94628744724
98171.07076905115
98169.37353361114
98173.69634149908
98186.20207655856
98209.23867038764
98244.69219537698
98294.74438162199
98359.46799389081
98436.40235499258
98513.12292500203
98608.27656527075
98191.2281666311
98191.80442915669
98189.14354632489
98184.77338637592
98178.73698936948
98171.07726237405
98161.98966783019
98151.75744568025
98140.75891180737
98129.5050029253
98118.68093516894
98109.19334267752
98102.20978515493
98099.18697658376
98101.88811245674
98112.35021170581
98132.63983381932
98164.38051542237
98208.97470196897
98265.62119262169
98330.38313913408
98388.28572192343
98466.43387281764
98127.0161837404
98127.55652826063
98124.76678662686
98120.22122143119
98113.9281803833
98105.92265880422
98096.39572612915
98085.61970525446
98073.95786399984
98061.90397438114
98050.12362090198
98039.50157922866
98031.17458533915
98026.54775126062
98027.29841464723
98035.33305844002
98052.49060635504
98079.64817776982
98117.47491254039
98163.68731848091
98211.12108610592
98237.49832342219
98267.0682686435
98061.01289187008
98061.42473061683
98058.4333824263
98053.59720830976
98046.92348452914
98038.43571085906
98028.31294059288
98016.81448839162
98004.28757894217
97991.20775130084
97978.22033854626
97966.18876046489
97956.22344784858
97949.6917544678
97948.20219355087
97953.54275391321
97967.3035717264
97989.49950904908
98019.70635746953
98053.64285653808
98078.52630469548
98056.405142754
97960.66823088574
96826.55536259485
96826.48557631871
96826.42886413436
96826.3773524451
96826.34377576906
96826.32540295842
96826.31496390224
96826.30704454558
96826.29880569901
96826.28827892331
96826.27440137866
96826.25800273784
96826.24035862381
96826.22273945951
96826.20631093314
96826.19206768928
96826.18080267348
96826.1731018781
96826.16933082335
96826.50501692115
96826.43019360505
96826.36994090574
96826.31624805303
96826.28263816766
96826.26508952504
96826.25557515987
96826.24842740576
96826.24080623245
96826.23057553887
96826.21677258816
96826.20031360482
96826.18252491587
96826.16472525313
96826.14811620461
96826.13371547272
96826.12232595634
96826.11454187357
96826.11074117855
96826.4604989612
96826.37539797886
96826.30849835624
96826.25066232684
96826.21727589799
96826.20162691806
96826.19410720082
96826.18853659913
96826.18208785261
96826.17241174073
96826.1587168391
96826.14209748013
96826.12398508111
96826.10579370857
96826.08879815652
96826.0740558385
96826.06239522529
96826.0544271078
96826.05054043652
96826.42279120069
96826.3215580184
96826.24380407859
96826.17955523939
96826.14704315845
96826.13475730171
96826.13050282148
96826.12737184887
96826.12270989634
96826.11383552934
96826.10027251032
96826.08337306284
96826.06474237387
96826.04593768333
96826.02833665741
96826.01305760797
96826.00097131958
96825.99271324674
96825.98868923447
96826.39280144485
96826.26885309145
96826.17424758145
96826.10106585798
96826.07103958694
96826.06422323252
96826.06477174684
96826.06501127622
96826.06275924377
96826.05489889999
96826.04147195372
96826.0241513904
96826.00479025325
96825.98513811424
96825.96670337627
96825.95068828043
96825.93801935205
96825.92936439828
96825.92515180015
96826.37214002307
96826.21705095729
96826.09681781141
96826.01218019826
96825.98824198204
96825.98975528005
96825.99693880035
96826.00157078556
96826.00237423462
96825.99568882296
96825.98235832212
96825.96444491249
96825.94411644983
96825.92336461683
96825.90385668291
96825.88690166513
96825.87349034846
96825.86433054123
96825.85987755889
96826.36896551486
96826.16490466057
96826.00659836986
96825.90941292995
96825.89657246234
96825.90989693449
96825.92628267818
96825.93678053777
96825.9414990589
96825.93623129229
96825.92296797088
96825.90426425695
96825.88269997704
96825.86057391236
96825.83974405128
96825.82163749638
96825.80732024759
96825.79754647931
96825.79280102455
96826.291741611
96826.10635200187
96825.90108654503
96825.81118839757
96825.78925610927
96825.8203567532
96825.85078188934
96825.86965535871
96825.87958062188
96825.87630372071
96825.86323554799
96825.8435879375
96825.82049892678
96825.79670760527
96825.77429454554
96825.75481680752
96825.73942728754
96825.72893096694
96825.72384213343
97956.60591556074
97956.67393987822
97953.38732950151
97948.00509318558
97940.62375405591
97931.25266359662
97920.03725830914
97907.2081840906
97893.07985716197
97878.08903269294
97862.83639676982
97848.13645333542
97835.04307639081
97824.85745769111
97819.06269628502
97819.23238513956
97826.65123067697
97840.16444589145
97856.66670658767
97868.02796971306
97848.00135591201
97713.14005180745
97079.74221234978
97813.65581339435
97813.40383233393
97809.68443649127
97803.58339078233
97795.16562377849
97784.42268221958
97771.44656600234
97756.39313278389
97739.48655743992
97721.05459007996
97701.56422794242
97681.68499071756
97662.32180263181
97644.68425215354
97630.09845980299
97620.01333832684
97615.84843228942
97617.01706732971
97618.24766707895
97609.38815521817
97568.39871836582
97461.44433131459
97249.2673425409
97667.87314534564
97667.17191382631
97662.79582395754
97655.71337252857
97645.92785371121
97633.3911421035
97618.11950268678
97600.16154945301
97579.60928297597
97556.62822776835
97531.46671546339
97504.54091644217
97476.48529077075
97448.41635389069
97421.57964991315
97398.19960622874
97381.37617904226
97370.21128007957
97363.75977782255
97351.92708272119
97326.58853807572
97276.29783616992
97192.1278353564
97519.82620300546
97518.63737831585
97513.50931238109
97505.30466956315
97493.96091919875
97479.36758509459
97461.43329947168
97440.05600058306
97415.14651443252
97386.6300644451
97354.32186532769
97317.99195861928
97277.6832638239
97234.12168134743
97187.64183997257
97142.92796323163
97110.97869193229
97086.52474625842
97070.41817916896
97066.2250328045
97058.31349228299
97046.51674786482
97014.77682249846
97370.14759210238
97368.43092097281
97362.46330693355
97353.00679977681
97339.92864710309
97323.0302918184
97302.05049772658
97276.62205660503
97246.35372593756
97210.89069038797
97169.27141736317
97120.07491034294
97063.15004237996
97003.67347745663
96941.43565837327
96881.29870779389
96855.26277115372
96842.98927593662
96836.92620449267
96838.02579548658
96843.65387795787
96852.14737705971
96859.95725814888
97219.03746093946
97216.76086351306
97209.8409667822
97198.94256357744
97183.85600491133
97164.27554058483
97139.66169998488
97109.26781846159
97072.45546253648
97029.04067494339
96978.89180988955
96925.34665969644
96872.24355074881
96847.26968883249
96832.10404565319
96820.10511225408
96816.3807905718
96815.4726169441
96815.25102665271
96815.1588578916
96815.05113625487
96815.06164596806
96817.92080429367
97065.67698105778
97062.85142773147
97054.90700563997
97042.46313379858
97025.30313250719
97003.13292709095
96975.19158138796
96942.78760839725
96907.79343372346
96873.14588561119
96847.09502917489
96829.44623888137
96816.97899325487
96818.61847172344
96818.82111527857
96817.20618435286
96815.64809302543
96814.99928175166
96814.81497024023
96814.61496563784
96814.26922234688
96813.78382303457
96813.33483327471
96917.72089313595
96915.01093176051
96907.94520516417
96897.50774371272
96884.19183883994
96868.85075118004
96853.44987372473
96840.08060620482
96827.7012786869
96817.90700346937
96815.84513488023
96815.759266915
96815.93387690157
96816.60076075538
96816.76310199063
96815.69810437039
96814.86121110395
96814.47205955493
96814.31073375899
96814.11088811264
96813.79808318286
96813.39377194564
96812.95476484686
96833.95392582794
96832.65977395112
96829.94208873187
96826.25569771072
96822.06025935346
96817.91155433017
96815.95546997551
96815.81828493015
96815.69557198074
96815.64698934485
96815.58222152044
96815.52237031235
96815.49591099379
96815.30694117135
96815.23003958519
96814.61281508284
96814.26357384645
96814.12507599531
96813.98140691862
96813.77515916583
96813.47415230847
96813.07729434736
96812.62184001261
96815.84595908785
96815.83457151086
96815.78572583194
96815.74664762724
96815.71757516521
96815.68929555449
96815.67924817636
96815.60346152446
96815.50401952576
96815.41799891561
96815.33213585021
96815.23408278238
96815.10955382625
96814.81649709551
96814.51281474427
96814.2330554558
96814.07071866281
96813.9327857435
96813.75609014907
96813.51779313514
96813.19812866204
96812.79280537565
96812.32912212785
96815.66184708496
96815.6523231032
96815.62416223015
96815.59248592745
96815.55952926874
96815.52150377112
96815.47645017189
96815.40317703543
96815.30836209416
96815.20587498504
96815.09743248842
96814.97967454215
96814.85061459598
96814.64725059463
96814.37366434763
96814.19890969266
96814.01637434546
96813.81905906158
96813.58935810962
96813.30922218591
96812.95748450834
96812.52144231592
96812.01094421002
96815.50101313394
96815.49335649906
96815.47311028406
96815.44525855395
96815.4100199321
96815.36478175968
96815.30531094781
96815.22407444424
96815.1224998968
96815.00627341768
96814.88013633245
96814.75541215358
96814.64051982632
96814.49968818501
96814.31667165377
96814.13504002737
96813.94481897543
96813.72304815576
96813.46153606703
96813.14841920596
96812.76177475422
96812.27780468599
96811.68227774445
96815.35780457298
96815.35033149444
96815.33243438184
96815.30527280772
96815.2678165676
96815.21704183499
96815.14865762403
96815.05871402766
96814.94875688344
96814.82035407863
96814.67910086448
96814.55051506261
96814.4427811542
96814.32253577362
96814.18516180218
96814.03881706885
96813.8646506058
96813.64059442648
96813.3674255653
96813.03599913203
96812.62261020257
96812.09268742279
96811.4117843455
96815.22657308033
96815.21872177113
96815.20113301909
96815.17340361804
96815.13375724363
96815.07868881055
96815.00394432775
96814.90724430498
96814.78959698744
96814.6484900642
96814.49382632654
96814.36202960348
96814.25504786421
96814.14790154414
96814.05542699911
96813.9500260287
96813.78641083524
96813.57255815683
96813.30467652041
96812.97311120978
96812.55194004501
96811.99657232243
96811.28142868375
96815.10523086661
96815.09689886757
96815.07916573588
96815.0507714417
96815.00955003401
96814.95160416268
96814.87275296309
96814.77153073318
96814.64754742425
96814.49841043935
96814.34091406106
96814.21343965053
96814.11494459535
96814.03828597495
96813.97010048882
96813.87559352015
96813.72510047792
96813.52578376512
96813.2741615308
96812.95939196329
96812.55656043426
96812.02456955001
96811.31177455695
96814.99285135974
96814.98427474995
96814.96673427716
96814.93832647635
96814.89680601575
96814.83805430023
96814.75812693602
96814.65570599181
96814.53082298988
96814.38887529836
96814.24932464286
96814.13617169236
96814.04716948245
96813.98215198271
96813.92239261325
96813.82576736949
96813.68595364552
96813.50412302888
96813.27614932357
96812.99148848963
96812.62831090632
96812.15414053679
96811.53152105983
96814.88889294298
96814.88038363066
96814.86354549689
96814.83606598452
96814.79583623352
96814.73897800158
96814.66238407585
96814.56558716427
96814.45034623513
96814.32506675742
96814.20623544045
96814.10611963266
96814.02756037819
96813.9640134191
96813.89367558822
96813.79688145962
96813.66860508504
96813.50700981979
96813.30801557525
96813.06299508606
96812.75570854556
96812.36792280697
96811.89308009493
96814.79254344286
96814.78434487114
96814.76857529122
96814.74283573538
96814.70530971784
96814.65277149228
96814.58312295462
96814.49662537478
96814.39637393302
96814.28989868556
96814.18842507261
96814.09962351639
96814.02448059317
96813.95556802044
96813.87967611254
96813.78633702082
96813.67122924142
96813.53168855219
96813.36437273945
96813.16322470413
96812.91823097401
96812.62443408082
96812.29819068518
96814.70254627775
96814.69479334389
96814.68031635393
96814.65679871559
96814.62282137483
96814.57587592954
96814.51457133511
96814.43950008112
96814.35382362474
96814.26357422724
96814.17589546088
96814.09538299037
96814.02226369758
96813.95174732164
96813.87642732929
96813.7903098625
96813.69006525639
96813.57348180145
96813.43840470188
96813.28143873312
96813.09807272321
96812.89218752141
96812.68865139413
96814.61732625455
96814.61006476748
96814.59693448003
96814.57577112726
96814.5455517412
96814.50439764815
96814.45138201573
96814.38713085114
96814.31427419974
96814.23718323745
96814.16054561808
96814.08752959192
96814.01849116564
96813.95085159689
96813.88063623401
96813.8044843573
96813.72022938389
96813.62651964577
96813.52245426983
96813.40691638218
96813.2793859208
96813.1481390384
96813.03838918841
96814.53526316228
96814.52849651371
96814.51664725666
96814.49774829761
96814.47112765069
96814.43542403769
96814.39001957209
96814.33542693533
96814.27361019705
96814.20767428094
96814.14093808421
96814.0758140668
96814.01295079493
96813.95133110406
96813.88910480066
96813.82458908482
96813.75665570573
96813.68482463394
96813.60927209319
96813.53056171228
96813.45060334532
96813.37895348623
96813.33760723572
96814.45497535862
96814.44870317582
96814.43803572841
96814.42123228972
96814.39790948438
96814.36711969813
96814.3284738934
96814.28236403495
96814.23019993097
96814.1742050115
96814.11684940071
96814.06010851882
96814.00495827875
96813.95137746993
96813.89880221154
96813.84665393246
96813.79463468626
96813.74298870604
96813.69268290195
96813.64533768978
96813.60403938359
96813.57786418512
96813.58460832632
96814.37544608975
96814.36968130429
96814.36011871941
96814.34525281015
96814.32492135958
96814.29850103504
96814.26579039634
96814.22711826822
96814.1835140398
96814.1366056371
96814.08828844223
96814.04027560029
96813.99374330183
96813.94926591447
96813.90705339644
96813.86725137733
96813.83017584911
96813.79659866491
96813.76798377637
96813.74648475602
96813.73550692351
96813.74286694216
96813.78238646912
96814.29599682268
96814.29076416821
96814.28226787974
96814.26922917619
96814.25164485521
96814.2291384178
96814.20166182777
96814.16953520924
96814.13356442173
96814.09499583165
96814.05533769888
96814.01609163606
96813.9785022799
96813.94346472362
96813.91163663387
96813.88362243961
96813.86015430157
96813.84234121071
96813.83189199676
96813.83111719649
96813.84326507305
96813.87471502002
96813.9359412175
96814.21617985191
96814.21150587936
96814.20406508865
96814.1927869207
96814.17777706812
96814.158842041
96814.13605224407
96814.10974590818
96814.08060927059
96814.04965708901
96814.01813518755
96813.98736151817
96813.95855674674
96813.93275435042
96813.91084683515
96813.89370572471
96813.88231611658
96813.87796366874
96813.88241829697
96813.89791065853
96813.9273066335
96813.97563552676
96814.0507157016
96814.1356728783
96814.13157631733
96814.12518797809
96814.11562239566
96814.10305678681
96814.08743094419
96814.06890134733
96814.04782885432
96814.02483375923
96814.00078752538
96813.97675604271
96813.95390172217
96813.93337239517
96813.91623153926
96813.90347325212
96813.89609746289
96813.89520670309
96813.90214011315
96813.91860817798
96813.94664398064
96813.98865466687
96814.0485033756
96814.131984808
96814.05421488803
96814.05070082693
96814.0453533438
96814.03744743181
96814.02720452406
96814.01466008152
96814.00002998306
96813.98369190199
96813.96622320269
96813.94839733251
96813.93114881607
96813.91551072999
96813.90254206631
96813.89327752794
96813.88872931815
96813.88993322459
96813.89801320077
96813.91427419864
96813.94029059559
96813.97784211648
96814.02888638992
96814.09633481178
96814.18445958606
96813.97156957672
96813.96862835334
96813.96429403231
96813.9579778397
96813.94992518125
96813.94023841081
96813.92917163188
96813.91711076192
96813.9045993941
96813.89233668131
96813.88115431239
96813.87197557963
96813.86576815552
96813.86350865327
96813.86617744168
96813.8747855588
96813.89041681902
96813.91428602049
96813.94779032798
96813.99244056182
96814.04979668012
96814.1220246615
96814.21226457845
96813.88750772785
96813.88511680465
96813.88175123173
96813.87693608366
96813.8709259344
96813.86386802634
96813.85603812216
96813.8478218003
96813.83973178043
96813.83240613766
96813.82659224409
96813.82311887373
96813.82286465136
96813.8267329493
96813.83564368679
96813.8505465294
96813.87244609154
96813.90243639101
96813.94173005001
96813.99158583205
96814.05322078764
96814.12823194357
96814.21893506893
96813.80180286085
96813.79992983975
96813.79747445749
96813.79405590551
96813.78992754238
96813.78526492839
96813.78035311993
96813.77557024048
96813.7713986017
96813.76842269975
96813.76731736213
96813.76882794499
96813.77374852698
96813.78290401118
96813.79714063219
96813.81732817976
96813.84437201943
96813.87923286647
96813.92294258384
96813.97653572376
96814.04095143183
96814.1173550794
96814.20745521112
96813.71423236086
96813.71283805033
96813.71122385783
96813.70908616639
96813.70667015182
96813.70416738342
96813.70186324103
96813.70012307294
96813.69939881364
96813.70022654836
96813.7032171889
96813.709041664
96813.71841497721
96813.73208286015
96813.75081188415
96813.7753842051
96813.80660015458
96813.84529052101
96813.89232442903
96813.94854095747
96814.01465344832
96814.0914984454
96814.18032821959
96813.62458107086
96813.62362225988
96813.62277367075
96813.62179470289
96813.62091800604
96813.62034222786
96813.62034683983
96813.62128078047
96813.62356582795
96813.62769370273
96813.63421829169
96813.64374397312
96813.65691310968
96813.67439515126
96813.6968766178
96813.7250516991
96813.75961886083
96813.80128838685
96813.85078560254
96813.90878606815
96813.97582335104
96814.05248413028
96814.13968669686
96813.53264524417
96813.53207691926
96813.5319151554
96813.53197069377
96813.53246130215
96813.53358648476
96813.53561580318
96813.53887970407
96813.54377054899
96813.55073927478
96813.56028855941
96813.57296313257
96813.58933929588
96813.61001533216
96813.63560169828
96813.66670981505
96813.70394452958
96813.74790726969
96813.79919767224
96813.85835563355
96813.92577237342
96814.00184462093
96814.08724066472
96813.43823582944
96813.43801284653
96813.43845860373
96813.4394257021
96813.44111611
96813.44372606132
96813.44751294334
96813.45278792294
96813.45991529743
96813.46930876728
96813.48142515209
96813.49675592069
96813.51581792215
96813.53914462094
96813.56727673844
96813.60075033008
96813.64008662228
96813.68579226492
96813.73835956385
96813.79821509807
96813.86563852572
96813.94088907268
96814.02444957419
96813.34118081996
96813.3412590638
96813.34223445898
96813.34399383592
96813.34672345602
96813.35061375135
96813.35590896057
96813.36290117149
96813.37192850777
96813.38337109362
96813.39764509199
96813.41519500583
96813.43648517835
96813.46199148432
96813.49219223909
96813.52755624407
96813.56853167615
96813.6155447182
96813.66899887069
96813.72922854137
96813.79642467455
96813.87074382982
96813.95253170202
96813.24132652963
96813.24166368741
96813.24309357771
96813.24553117971
96813.24914783843
96813.25412685185
96813.26069930232
96813.26913918836
96813.27976083664
96813.29291460512
96813.30898108814
96813.32836392635
96813.35148185272
96813.37876067625
96813.41062445811
96813.44748401624
96813.48972543907
96813.53770704613
96813.59175856746
96813.65214006355
96813.71897585606
96813.79234660811
96813.87249337982
96813.13853802976
96813.13909403491
96813.14090679953
96813.14391464108
96813.14827523052
96813.15416426335
96813.16180037074
96813.17144107749
96813.183379678
96813.19794070751
96813.21547425416
96813.23634913185
96813.26094530587
96813.2896460917
96813.32282961163
96813.36085774795
96813.40406446357
96813.45275202231
96813.5071910065
96813.5675836359
96813.63400326035
96813.70647384513
96813.78515696147
96813.03269964215
96813.03343680323
96813.03556454231
96813.03904078605
96813.04401107602
96813.05064367388
96813.05914601973
96813.06976123953
96813.08276458902
96813.09845880276
96813.11716849156
96813.13923357341
96813.16500196009
96813.19482190664
96813.2290336747
96813.26795897656
96813.31188973159
96813.36108395852
96813.41576560466
96813.47609157773
96813.54209629379
96813.61376166853
96813.69119076451
96812.92371694733
96812.92459974637
96812.92697793536
96812.9308261986
96812.93627976879
96812.9435001926
96812.95268539982
96812.96406643295
96812.97790367813
96812.99448216484
96813.01410603081
96813.03709211537
96813.06376282951
96813.09443864984
96813.1294299397
96813.16902683767
96813.21348863101
96813.26303939444
96813.3178672044
96813.37809435662
96813.44372676586
96813.51471650635
96813.59112384378
96812.8115160758
96812.81251110714
96812.81507904569
96812.81920829255
96812.82502566924
96812.8326871428
96812.84238310732
96812.85433516513
96812.86879225142
96812.88602589964
96812.9063247759
96812.9299883856
96812.95732008408
96812.98861970741
96813.02417548581
96813.06425422717
96813.10909118631
96813.15888564134
96813.21379975755
96813.27393093715
96813.3392650396
96813.40973414629
96813.48536902745
96812.69602024987
96812.69709665372
96812.69979938342
96812.70412530015
96812.71019450932
96812.71815891998
96812.72820369752
96812.74054396666
96812.75542085191
96812.77309675742
96812.79384992951
96812.81796821185
96812.84574214282
96812.87745766692
96812.91338813795
96812.95378477863
96812.99886702641
96813.04881822514
96813.10378391048
96813.16384475734
96813.22897308678
96813.29909043672
96813.37421258683
96812.57712790197
96812.57825375305
96812.58103243398
96812.58546685347
96812.59167470163
96812.59980629795
96812.61004386503
96812.62259866281
96812.63770718173
96812.65562655964
96812.67662921152
96812.70099663569
96812.72901260422
96812.76095590947
96812.79709238214
96812.83766541614
96812.88288645548
96812.93293075591
96812.98793550565
96813.04797286823
96813.11300779667
96813.18295816536
96813.25784045385
95853.44597589487
95952.70886101278
96356.08675511977
96623.3824502511
97029.48787042499
96975.60317502455
96984.50167518735
96964.0592281881
97040.26077767181
96937.11190653201
96883.02690976045
96859.56405020719
96931.55388639146
96875.09227219247
96847.65512659191
96836.84856783344
96844.59154369241
96829.64177265615
96822.10345439428
96816.25839968154
96822.61258210047
96827.62901326717
96833.0451972772
96834.70645243178
96813.11259295548
96812.99810212178
96812.9752490783
96812.92055761072
96812.58265547754
96812.32431157639
96812.07679895456
96811.78104193664
96812.19596479434
96811.89428479555
96811.6291100861
96811.38305376914
96811.85264693286
96811.50610775774
96811.19925819171
96810.91466763987
96811.49023931958
96811.11158646984
96810.74131592349
96810.36985066856
96811.06086455043
96810.60381773851
96810.13819401513
96809.66593464289
96810.69949889746
96810.17258224022
96809.61057153852
96809.02251916565
96810.52644017976
96809.97424489369
96809.38330648822
96808.76607279536
96810.57832708265
96810.03874514114
96809.45788188903
96808.82723814582
96810.90030992232
96810.42776346751
96809.89422497179
96809.26964367904
96811.44268565693
96811.11107748905
96810.72455576362
96810.21306762414
96812.01803679203
96811.82523305653
96811.60879500196
96811.31797932068
96812.53342528411
96812.43240684716
96812.32460288437
96812.18055811383
96812.97022464058
96812.93114015188
96812.8947446474
96812.84529379217
96813.32784105807
96813.32863040948
96813.3365051681
96813.34220935669
96813.61265209322
96813.63824229923
96813.67209225635
96813.7082763658
96813.83403061418
96813.87434081947
96813.9226060878
96813.97484296355
96814.00175667182
96814.05040076314
96814.10617318899
96814.1663235072
96814.12450393653
96814.17748908159
96814.23672442026
96814.30015579695
96814.20968669394
96814.26440955013
96814.32450619676
96814.38849168349
96814.26346809331
96814.31833110379
96814.37775996332
96814.44064248941
96814.29095617241
96814.34503228011
96814.40301542076
96814.46405139549
96814.29635313
96814.34912285738
96814.40525665066
96814.46410023792
96814.28305498135
96814.33425374251
96814.38837704246
96814.44494416751
96814.25380625432
96814.3032828037
96814.35525122612
96814.40928610902
96814.21098717052
96814.25877498985
96814.30874655422
96814.3605912757
96814.15638755521
96814.20255450628
96814.25064399502
96814.30040035724
96814.09155407865
96814.13621019402
96814.18257003555
96814.23042045416
96814.01775820149
96814.0610423162
96814.10584830245
96814.15199845492
96813.93603917281
96813.97810699634
96814.02154764188
96814.06621196105
96813.84724102633
96813.88825893386
96813.9305288867
96813.97392461836
96813.75204556367
96813.79218531707
96813.83348106351
96813.87582463217
96813.65098961521
96813.69042596189
96813.73094407597
96813.77245050781
96813.5444940219
96813.58340401172
96813.62334117647
96813.66421988138
96813.43284263927
96813.47139947591
96813.51094486545
96813.55140504002
96813.31624358406
96813.35463692703
96813.39400102488
96813.43424850395
96807.16294269088
96826.0963837232
96825.68833686117
96825.49673349684
96825.59191398846
96825.66958955793
96825.72751884139
96825.76424793145
96825.78233676318
96825.78246671589
96825.7694834912
96825.74788468906
96825.72193611384
96825.6951262778
96825.66986885898
96825.6479434089
96825.63064803176
96825.61887109432
96825.61316413961
96854.38716997566
96796.13810257618
96824.3592674328
96825.38806468718
96825.47808580229
96825.50618285287
96825.57095427479
96825.62359959567
96825.65262301434
96825.65661240622
96825.64202039983
96825.61576182986
96825.58409262197
96825.55154317465
96825.52103715447
96825.49470513633
96825.47403649394
96825.46001220237
96825.45323503255
96820.24448327221
96771.30114838826
96785.25955231134
96819.7630522192
96825.39878487302
96825.42555757411
96825.45354689316
96825.48443895533
96825.52444942873
96825.5326962274
96825.51424918331
96825.48081641877
96825.44120869746
96825.40093576827
96825.36358410645
96825.33163815159
96825.30674895388
96825.28995169845
96825.28188075181
96816.65377997259
96792.4802061854
96783.14919404525
96792.63868161876
96820.63055540157
96825.02259002418
96825.26032735272
96825.34092896619
96825.40045639158
96825.41189815939
96825.38611295035
96825.3420757072
96825.29175743044
96825.24157189202
96825.19577729833
96825.15712556989
96825.12730409746
96825.10730990588
96825.09776230538
96804.71885696195
96795.8303926807
96786.22392440272
96785.31208904934
96800.38684377921
96822.99724707611
96824.71193388804
96825.24381691372
96825.30397568143
96825.29642489209
96825.25638596494
96825.19754883958
96825.1330615757
96825.07066981222
96825.01502305891
96824.96881707181
96824.93357124372
96824.91011531098
96824.89898762709
96817.48430125939
96801.17730454165
96780.38342892651
96775.92537131099
96784.47750197971
96814.50353368887
96824.68921663362
96825.38269121108
96825.27529515837
96825.18969935786
96825.1216012588
96825.04303278479
96824.96086353574
96824.88439359036
96824.81801449013
96824.7638584353
96824.72304741315
96824.69609876721
96824.68339717288
96813.60302420957
96822.24838695901
96791.34780593125
96764.91126179336
96773.91268145853
96793.37706934071
96825.55018513328
96825.37061709582
96825.19548986308
96825.05348988407
96824.96400652995
96824.86849602906
96824.76857766265
96824.67776899971
96824.60082272031
96824.53907004379
96824.49308179067
96824.46294106035
96824.44881966648
96811.25945500477
96810.97467516546
96811.57948942194
96770.54498884283
96763.57179356835
96791.23030289775
96826.03865985865
96825.27628164011
96825.06791549244
96824.90866367125
96824.78765030757
96824.66636777938
96824.54854638358
96824.44498254816
96824.35912306751
96824.29119131743
96824.24111321618
96824.20850022144
96824.1932951182
96810.98999234712
96810.67697108141
96810.092955699