/*--------------------------------*- C++ -*----------------------------------*\
| =========                 |                                                 |
| \\      /  F ield         | OpenFOAM: The Open Source CFD Toolbox           |
|  \\    /   O peration     | Version:  2206                                  |
|   \\  /    A nd           | Website:  www.openfoam.com                      |
|    \\/     M anipulation  |                                                 |
\*---------------------------------------------------------------------------*/
FoamFile
{
    version     2.0;
    format      ascii;
    arch        "LSB;label=32;scalar=64";
    class       volScalarField;
    location    "0.25";
    object      p_rgh;
}
// * * * * * * * * * * * * * * * * * * * * * * * * * * * * * * * * * * * * * //

dimensions      [1 -1 -2 0 0 0 0];

internalField   nonuniform List<scalar> 
2268
(
98528.82671827707
98529.66079528289
98527.45407393794
98523.5245560184
98518.18154748873
98511.46212977007
98503.52084907357
98494.66071930258
98485.29671120361
98475.97176026377
98467.40419495272
98460.54289542705
98456.62755923455
98457.25425182759
98464.43674433751
98480.62950537069
98508.63761874581
98551.37572688388
98611.21373919757
98688.65150003113
98780.24781284382
98873.68084302194
98965.62116723944
98527.5932969188
98528.39520517272
98526.13998448696
98522.18052140299
98516.78279904525
98509.98693784687
98501.95861535611
98493.00089462681
98483.52666328687
98474.07881069208
98465.37649892774
98458.36882674872
98454.29299863822
98454.73576783057
98461.68809886045
98477.55853804231
98505.09573716861
98547.25836227457
98606.39487002043
98683.29589731037
98775.18318893408
98869.98858791539
98966.48537547544
98525.67757315021
98526.44585763679
98524.13469761152
98520.13657827833
98514.66083331265
98507.75024621682
98499.58265098736
98490.45934387267
98480.78807708803
98471.10845298073
98462.13667587437
98454.81716846596
98450.37760231513
98450.38473688267
98456.79213176321
98471.94457995522
98498.44277355475
98539.15379518361
98596.43385217845
98671.11350359624
98760.87168914068
98853.73188102063
98952.65048526596
98522.96542894714
98523.67019112202
98521.26074551363
98517.17292271512
98511.55595546412
98504.4545084369
98496.05645129035
98486.65946334768
98476.66403599182
98466.60389105741
98457.18940519744
98449.35721806767
98444.32112317302
98443.62032938623
98449.15756287999
98463.18724713405
98488.07885174584
98526.66063786487
98580.93221812928
98651.61880199154
98736.6067623113
98823.9532613418
98923.24606868188
98519.54082274888
98520.17209324056
98517.6385273034
98513.42060145961
98507.61067836601
98500.25413773992
98491.54507283386
98481.77526712987
98471.33559946818
98460.75058252602
98450.72077293458
98442.17081290859
98436.29529285798
98434.59805251032
98438.9208482283
98451.4265594038
98474.46311387862
98509.91657666568
98559.96867152723
98624.69215508984
98701.62632397805
98778.34651598899
98873.47985526253
98515.39147756883
98515.96774000536
98513.30685699989
98508.9366967817
98502.90029937951
98495.24057181379
98486.15297644438
98475.92075310368
98464.92221754594
98453.66830635868
98442.84423557988
98433.35663931025
98426.37307540381
98423.35025277242
98426.05136043846
98436.51341324933
98456.80297047933
98488.54356032878
98533.13762065007
98589.78394538186
98654.54566269465
98712.44782335963
98790.59444586857
98510.11827245638
98510.65861644389
98507.86887394726
98503.32330750074
98497.03026472512
98489.0247407968
98479.49780489536
98468.72177957225
98457.05993224589
98445.00603452889
98433.2256705675
98422.6036157381
98414.27660108866
98409.64972784898
98410.40032441069
98418.43487545311
98435.59231873871
98462.74977028884
98500.57635255111
98546.78857060864
98594.22209373268
98620.59889849898
98650.16723624934
98503.05374342696
98503.46558045817
98500.47422959599
98495.63805166622
98488.96432272105
98480.47654215743
98470.3537625668
98458.85529767534
98446.32837109287
98433.24852076403
98420.26107865867
98408.22946332344
98398.26409306798
98391.73229901213
98390.2425825461
98395.58295047675
98409.34358884487
98431.53939237114
98461.74609585466
98495.68243195361
98520.5656731889
98498.44412796537
98402.70564113309
96826.58392492813
96826.51413863963
96826.45742644389
96826.40591474532
96826.37233806365
96826.35396524963
96826.34352619101
96826.33560683213
96826.32736798345
96826.31684120545
96826.30296365853
96826.28656501541
96826.26892089917
96826.25130173306
96826.23487320537
96826.22062996076
96826.20936494494
96826.20166414967
96826.19789309289
96826.59070388094
96826.51588052315
96826.45562778963
96826.40193491009
96826.36832501026
96826.35077635862
96826.34126198784
96826.33411422875
96826.32649305028
96826.31626235048
96826.30245939342
96826.28600040279
96826.26821170721
96826.25041203886
96826.23380298623
96826.21940225211
96826.2080127357
96826.20022865299
96826.19642794821
96826.60331049218
96826.51820942607
96826.45130974395
96826.39347367949
96826.36008725301
96826.34443823768
96826.3369185068
96826.33134790038
96826.32489914911
96826.31522302968
96826.30152811905
96826.28490874871
96826.26679633911
96826.24860495738
96826.23160939848
96826.21686707686
96826.20520646367
96826.19723834567
96826.19335165634
96826.62272723664
96826.52149393305
96826.44373996176
96826.37949129024
96826.34697953449
96826.33469320793
96826.33043855842
96826.32730756751
96826.32264561411
96826.31377124193
96826.30020821314
96826.28330875201
96826.26467804928
96826.24587334628
96826.22827231094
96826.21299325643
96826.20090696793
96826.19264889347
96826.18862485442
96826.6498630245
96826.52591351906
96826.43130893617
96826.35813038216
96826.32810723659
96826.32128556685
96826.32183209648
96826.32207136646
96826.31981932391
96826.31195898047
96826.29853202615
96826.28121144895
96826.26185029565
96826.24219814139
96826.22376339158
96826.20774828913
96826.19507936035
96826.18642440329
96826.18221176845
96826.68628217706
96826.53123516183
96826.41101544478
96826.32640988583
96826.30248911715
96826.30395922586
96826.31112601291
96826.31575539615
96826.31655863348
96826.30987321399
96826.29654270972
96826.27862928972
96826.25830081083
96826.23754896077
96826.21804101276
96826.20108598692
96826.18767466948
96826.17851485677
96826.17406182532
96826.7411712349
96826.53645434133
96826.37801270647
96826.28107336015
96826.26826647429
96826.28133288231
96826.2976130134
96826.30809149481
96826.31280792283
96826.30753994521
96826.29427661013
96826.27557289065
96826.25400859905
96826.23188251905
96826.21105264379
96826.19294608067
96826.17862883146
96826.16885505522
96826.16410954449
96826.71003810868
96826.52868808428
96826.3303935024
96826.24180619656
96826.21950633332
96826.24943343783
96826.27934497915
96826.29810600042
96826.30801568725
96826.30473676248
96826.29166839102
96826.27202075582
96826.24893172813
96826.22514039256
96826.20272732073
96826.18324957574
96826.16786005537
96826.15736372636
96826.15227483332
98490.79850682008
98490.86652642451
98487.57990896229
98482.19766252299
98474.81630983796
98465.44520146358
98454.22977208463
98441.40066522897
98427.27229443782
98412.28141206676
98397.02870117602
98382.32866169521
98369.23513734392
98359.04927086634
98353.25414744877
98353.42340849753
98360.84186597393
98374.35489292603
98390.85696030964
98402.21804549595
98382.19128349588
98247.32979232434
97613.93095594262
98473.21295685845
98472.96095961727
98469.24153947414
98463.14045927676
98454.72264666828
98443.97964536845
98431.00344912281
98415.94990786526
98399.04318818348
98380.61103164332
98361.1204262503
98341.24087811816
98321.87722384553
98304.23891104684
98289.65207673929
98279.56579610855
98275.39986260269
98276.56784964538
98277.79844510826
98268.93916015456
98227.94979019769
98120.99562018439
97908.81859097868
98452.79437307619
98452.09309909833
98447.71694400259
98440.6344005015
98430.84876139881
98418.31189310973
98403.0400439942
98385.08180825763
98364.52916719481
98341.54762705536
98316.38550226472
98289.45893610558
98261.40221383111
98233.33142456974
98206.49231675763
98183.10981689916
98166.28438742999
98155.1180606522
98148.66632482871
98136.83425056716
98111.49688542225
98061.20715882056
97977.03853336988
98430.11057848843
98428.92166359088
98423.79345286368
98415.58860718193
98404.24459474637
98389.65091996011
98371.71617783284
98350.33826522552
98325.42797471643
98296.91050619633
98264.60106224492
98228.2696645973
98187.95902133708
98144.39349563482
98097.90832449
98053.18942506706
98021.12270005891
97987.9436567026
97964.69726205716
97973.93879478566
97968.57269780058
97956.77874440487
97925.04188200377
98405.79353817432
98404.07670690396
98398.10881688607
98388.65192812168
98375.57328702901
98358.67429510401
98337.69364394303
98312.26405341555
98281.99424926251
98246.52942306148
98204.90805735148
98155.7092717145
98098.78186920809
98026.84923378448
97884.31053078039
97667.67247336546
97461.98539786253
97288.98594073001
97188.61647496863
97215.55924630184
97313.01208700867
97474.50766275407
97684.1631421201
98380.04270512849
98377.76586416969
98370.8455053527
98359.94647222721
98344.85911533628
98325.2776006379
98300.66231539162
98270.26651315289
98233.4518449062
98190.0344246021
98135.73755945891
98004.88423328575
97741.40480807504
97365.45347125524
97042.31393928589
96823.50781666026
96817.79694657036
96816.87073279424
96816.63532631232
96816.53371895074
96818.26685021467
96834.75548969689
96905.15797468797
98352.0387020325
98349.21281809274
98341.26773135127
98328.82292535294
98311.66176677428
98289.48996979954
98261.54621617531
98209.44315668049
98087.75825390193
97864.69291690859
97489.22021154329
97116.21027793673
96826.55685518822
96820.19199676249
96820.30459448465
96819.16857659529
96817.43955812189
96816.56067846103
96816.24351724947
96816.0217669128
96815.67692169581
96815.21110579561
96814.79184595462
98281.16832005446
98268.42049277567
98235.4689130457
98175.84842572575
98078.56685795954
97930.36472547025
97692.54538664762
97385.18675222385
97098.62294690554
96865.72138273389
96817.57786754072
96817.46308512714
96817.62227127653
96820.22611416038
96825.69178293485
96825.32488814736
96819.08993836258
96815.98308090652
96815.78405182042
96815.55986261467
96815.23595060577
96814.84380601587
96814.43829695713
97275.90103153751
97243.04000307941
97175.25247374605
97082.50360827624
96977.05957809518
96872.65951402181
96817.84301107073
96817.68066003978
96817.51996453037
96817.43292617986
96817.33620846954
96817.25394019218
96817.22329632586
96820.8752319109
96825.73450954864
96824.42846425078
96817.31526816776
96815.68634575568
96815.51267311214
96815.30367350647
96815.01611899825
96814.63865424096
96814.20940328915
96817.83218600732
96817.81762479669
96817.75619632821
96817.70648298945
96817.65670589116
96817.60017424835
96817.5582708326
96817.44816730298
96817.31670959128
96817.20510205282
96817.10441621808
96817.00046196066
96816.88091371176
96816.65382326375
96818.19685719651
96816.03524734764
96815.74503677533
96815.56762771501
96815.39105095599
96815.16933176006
96814.87658084069
96814.50383701289
96814.07473998805
96817.64485230773
96817.6260869665
96817.58928796377
96817.54177557671
96817.48798232782
96817.42503826066
96817.35370311883
96817.25646448269
96817.14299854013
96817.02933810251
96816.91905658273
96816.80557857156
96816.69228068557
96816.5474147585
96816.30548923193
96816.03765060579
96815.77759129433
96815.56639167773
96815.34624985101
96815.08703470725
96814.76342808186
96814.35716069852
96813.87584155139
96817.49553334733
96817.48059068312
96817.45127696166
96817.41207242245
96817.36140169042
96817.29851034055
96817.22253386441
96817.12849644526
96817.02008050121
96816.90405228574
96816.78541542652
96816.67100368835
96816.60271661918
96816.56795882255
96816.37228864092
96816.06941392813
96815.81655104751
96815.58938494488
96815.338934823
96815.04404766351
96814.67778877544
96814.21044453933
96813.62746775424
96817.39955780654
96817.38564845582
96817.36162341338
96817.32738919411
96817.28071617385
96817.22037045314
96817.14445689366
96817.05115201059
96816.94384640366
96816.84051173537
96816.7080195048
96816.58511434036
96816.84456184915
96816.93585885604
96816.41379818846
96816.05919722543
96815.84854274282
96815.62600861011
96815.36187468997
96815.04237103404
96814.6400951133
96814.1179618376
96813.44580192756
96817.346585258
96817.33530476407
96817.31479636117
96817.28362607193
96817.23988666265
96817.18139185624
96817.10557956464
96817.01217200833
96816.91244866415
96816.98805752709
96816.83904770177
96816.597629743
96816.99142964868
96816.90957506905
96816.2892938826
96816.05316941107
96815.88756598531
96815.67678633126
96815.41430890547
96815.08910883658
96814.67357676782
96814.12359022863
96813.41979452781
96817.32778272322
96817.31827959548
96817.29960047534
96817.27022194902
96817.228129269
96817.17026834254
96817.09395798869
96817.00008823165
96816.99777191551
96817.02705657572
96816.88933503996
96816.60537862297
96816.80181751
96816.39264320998
96816.19149452935
96816.09450719772
96815.94647943643
96815.74860475841
96815.49968354371
96815.18797716616
96814.78818124112
96814.26074462061
96813.55953546084
96817.33157176191
96817.32288566644
96817.30532564022
96817.27706957347
96817.23602480406
96817.17872328893
96817.10291001842
96817.01252956052
96817.02905714246
96816.94415576712
96816.70092627927
96816.57242233711
96816.48934939261
96816.35841343699
96816.26203576097
96816.16575706903
96816.02772838199
96815.84628414587
96815.61949542865
96815.33613386823
96814.97441509763
96814.50302669122
96813.88818912096
96817.3491484254
96817.34084748209
96817.32422287921
96817.29707158809
96817.25750903462
96817.20235814496
96817.13060560469
96817.04858752878
96816.94321123124
96816.83382837824
96816.72611412664
96816.625609797
96816.52703086047
96816.43672962427
96816.35346685731
96816.2583343132
96816.13112757813
96815.96944595431
96815.77092989699
96815.52637908657
96815.21964284856
96814.83294010957
96814.36119429194
96817.37538121865
96817.3673170104
96817.35165402856
96817.32608494337
96817.28900269156
96817.23791412963
96817.17251415005
96817.09365915445
96817.00308806043
96816.90444670313
96816.80371730785
96816.7075178771
96816.62038621814
96816.5411954742
96816.461473711
96816.36931597759
96816.25483260014
96816.11506387586
96815.94794555614
96815.74693633495
96815.50210680503
96815.20861185349
96814.88324443302
96817.40740615637
96817.3996542408
96817.38517279625
96817.36167558975
96817.32790018224
96817.28184963664
96817.22295078658
96817.15236113773
96817.07278764066
96816.98799776283
96816.8987832437
96816.81145264819
96816.73178100043
96816.65653906016
96816.5800677284
96816.49489198567
96816.39495430127
96816.27814867487
96816.14316935561
96815.98623038807
96815.80290358014
96815.59708075978
96815.39373143147
96817.44363242648
96817.43633951241
96817.42318205358
96817.40199666856
96817.37183502495
96817.3310252504
96817.27902794613
96817.21681187143
96817.14833217526
96817.07518417946
96816.9980672431
96816.91878147746
96816.84612287188
96816.77637358759
96816.70611903378
96816.6306588411
96816.54650595167
96816.45262404613
96816.34862279285
96816.23307960766
96816.1055559713
96815.97431681766
96815.8645964429
96817.48290890048
96817.47613509283
96817.46428049884
96817.44537610623
96817.41875538511
96817.38309190533
96817.33788469227
96817.28383818408
96817.22353566192
96817.16032428046
96817.0924193847
96817.02506766462
96816.9606529508
96816.89828279954
96816.83636769798
96816.77231685317
96816.70436640887
96816.63241492964
96816.55691477498
96816.47819048946
96816.39823277328
96816.32658136096
96816.28523741259
96817.52409718747
96817.51783076474
96817.50716800053
96817.49036869645
96817.46703903722
96817.43621524164
96817.39750520629
96817.35134240302
96817.29921449855
96817.24335893965
96817.18609192487
96817.12919641868
96817.07373269262
96817.02006370989
96816.96777567671
96816.91587991426
96816.86380367863
96816.81207964322
96816.76181848833
96816.71445755482
96816.67315988363
96816.64698250097
96816.65372597222
96817.56610646707
96817.56034212201
96817.55077932221
96817.5359128722
96817.51557780725
96817.48914328727
96817.45639428792
96817.41764680126
96817.37393702862
96817.32692860431
96817.27855774817
96817.23055473898
96817.18407554942
96817.13970540902
96817.0976554485
96817.05794053272
96817.02081557413
96816.98719757264
96816.95861421927
96816.93710187527
96816.92612526493
96816.93348383268
96816.97300320545
96817.60815414407
96817.6029190444
96817.59442039453
96817.58137884314
96817.56379155946
96817.54128126903
96817.51379639565
96817.48165039928
96817.44564303842
96817.40702413366
96817.36732145489
96817.32806431
96817.2905111484
96817.25554082956
96817.22377482941
96817.19577442406
96817.17227608312
96817.1544493877
96817.14401602201
96817.14323303105
96817.1553820695
96817.186831477
96817.24805825762
96817.64981714969
96817.64514304842
96817.637701769
96817.62642332929
96817.61141337354
96817.59247844422
96817.56968883907
96817.54338168657
96817.51424096232
96817.4832796702
96817.45174554615
96817.42096344636
96817.39216149636
96817.36637246799
96817.34447659712
96817.32733277611
96817.31593132207
96817.31157625341
96817.31603623931
96817.33152514529
96817.36092196262
96817.40925115393
96817.48433250384
96817.69081198805
96817.6867147014
96817.68032537206
96817.6707587784
96817.65819216233
96817.64256507043
96817.62403378393
96817.60295935052
96817.57996240091
96817.55591432747
96817.53188058289
96817.50902358467
96817.48849203061
96817.47135008773
96817.45859092822
96817.45121282933
96817.45031916257
96817.45725213282
96817.47372139935
96817.501756439
96817.54376790427
96817.6036175499
96817.68710058753
96817.73084607512
96817.72733144765
96817.72198310017
96817.71407624481
96817.70383237908
96817.69128692178
96817.67665562042
96817.66031599224
96817.64284536381
96817.62501733376
96817.60776665038
96817.59212653007
96817.57915602725
96817.56988990733
96817.56534039161
96817.56654321223
96817.5746224208
96817.59088327219
96817.6169000033
96817.65445187435
96817.70549713755
96817.77294693756
96817.86107361437
96817.76969508233
96817.76675337383
96817.76241827253
96817.75610120373
96817.74804764999
96817.73835992698
96817.72729201692
96817.71522972111
96817.70271659874
96817.69045187191
96817.67926737899
96817.6700865923
96817.66387733922
96817.66161633146
96817.66428398127
96817.6728913332
96817.68852220292
96817.71239140886
96817.74589612604
96817.79054716561
96817.84790455832
96817.92013422657
96818.0103762447
96817.80712695867
96817.80473564034
96817.80136938911
96817.79655343648
96817.79054243572
96817.78348363766
96817.77565273593
96817.76743520792
96817.75934371038
96817.75201633827
96817.74620056587
96817.74272531811
96817.74246937684
96817.74633624322
96817.75524591902
96817.77014810531
96817.79204742098
96817.82203788514
96817.86133214273
96817.9111889831
96817.97282545317
96818.04783851589
96818.13854387133
96817.84291565455
96817.84104232873
96817.83858638088
96817.83516712423
96817.83103799097
96817.82637457141
96817.82146188607
96817.81667798005
96817.81250509869
96817.80952772923
96817.8084207627
96817.80992967574
96817.81484869258
96817.82400285402
96817.83823850007
96817.85842548193
96817.88546918667
96817.92033033345
96817.96404080307
96818.01763517082
96818.08205256643
96818.15845827722
96818.2485607291
96817.87683850102
96817.87544396993
96817.87382932265
96817.87169103506
96817.86927434662
96817.8667708702
96817.86446597657
96817.86272495807
96817.86199968544
96817.86282621502
96817.86581548913
96817.8716385258
96817.88101045624
96817.89467714947
96817.91340529664
96817.93797713664
96817.96919304166
96818.00788381272
96818.05491858779
96818.11113645964
96818.17725075103
96818.25409791553
96818.34293007139
96817.90868033293
96817.90772137318
96817.90687243016
96817.90589297291
96817.90501570495
96817.90443932409
96817.90444331207
96817.90537657174
96817.90766082496
96817.91178775187
96817.9183112434
96817.92783573641
96817.94100369736
96817.95848470381
96817.98096540122
96818.00914008013
96818.04370726884
96818.08537727852
96818.13487544596
96818.19287733427
96818.25991648964
96818.33657950177
96818.42378449654
96817.93823739175
96817.93766897504
96817.93750694071
96817.93756208463
96817.93805221998
96817.9391769037
96817.94120572094
96817.94446909947
96817.94935935381
96817.95632737479
96817.96587582442
96817.97854946357
96817.99492467288
96818.01559984765
96818.04118556842
96818.07229336814
96818.10952817688
96818.15349146759
96818.20478288953
96818.26394233115
96818.33136098937
96818.40743550862
96818.4928340155
96817.96532061548
96817.96509757984
96817.96554312877
96817.9665099085
96817.96819992771
96817.97080947373
96817.97459596636
96817.97987056678
96817.98699753443
96817.99639052176
96818.00850631706
96818.02383639669
96818.04289766491
96818.06622368266
96818.09435529055
96818.12782866231
96818.16716512018
96818.21287137276
96818.2654397463
96818.32529681041
96818.39272219445
96818.46797504244
96818.55153803853
96817.98975798463
96817.98983619729
96817.99081142337
96817.99257053503
96817.99529983166
96817.99918979916
96818.00448471471
96818.01147667068
96818.02050376144
96818.03194606348
96818.04621969763
96818.06376915469
96818.08505881102
96818.11056462055
96818.14076500983
96818.17612890071
96818.21710457547
96818.26411828831
96818.31757356985
96818.37780481974
96818.44500294751
96818.51932443283
96818.60111483267
96818.01139580074
96818.01173293158
96818.0131626706
96818.01560003815
96818.01921641795
96818.02419516246
96818.03076739678
96818.03920713182
96818.04982867246
96818.06298233043
96818.07904865041
96818.0984312449
96818.12154886032
96818.14882736755
96818.18069092906
96818.2175504824
96818.25979222808
96818.30777456805
96818.36182727315
96818.42221040072
96818.48904823555
96818.56242135917
96818.6425707017
96818.03009912009
96818.03065508803
96818.03246770131
96818.03547532043
96818.03983565744
96818.04572446342
96818.05336041538
96818.06300105652
96818.07493966544
96818.08950073313
96818.10703429276
96818.12790911758
96818.15250516984
96818.18120581137
96818.21438925581
96818.25241750228
96818.29562462936
96818.34431299099
96818.3987532199
96818.45914753922
96818.52556926111
96818.59804227011
96818.67672801047
96818.04575224906
96818.04648935102
96818.04861692659
96818.05209294702
96818.05706299843
96818.06369539947
96818.07219763834
96818.08281286368
96818.0958163199
96818.11151069887
96818.13022055256
96818.1522857487
96818.1780541827
96818.20787414299
96818.24208597363
96818.28101150035
96818.32494275954
96818.37413786525
96818.42882082272
96818.48914854966
96818.55515542738
96818.62682329121
96818.70425507527
96818.05826074841
96818.05914346114
96818.06152147014
96818.06536950538
96818.07082284699
96818.07804309984
96818.08722824325
96818.09860934499
96818.11244678275
96818.12902554391
96818.14864970412
96818.17163604524
96818.19830695225
96818.22898292636
96818.26397440753
96818.30357164572
96818.34803404553
96818.39758577781
96818.45241497825
96818.51264395517
96818.57827859248
96818.64927088712
96818.72568097578
96818.06755072626
96818.06854564926
96818.07111339866
96818.07524242028
96818.08105958556
96818.08872091945
96818.09841686566
96818.11036905284
96818.12482640854
96818.14206042382
96818.16235969999
96818.1860236801
96818.21335568825
96818.24465558119
96818.28021166488
96818.32029085912
96818.36512853608
96818.41492406739
96818.46983967224
96818.529972761
96818.59530916164
96818.66578088063
96818.74141856394
96818.0735454008
96818.07462168447
96818.07732423789
96818.08164995803
96818.08771899725
96818.09568331811
96818.10572813147
96818.1180685861
96818.13294579874
96818.15062213254
96818.17137577155
96818.19549449996
96818.22326882808
96818.25498472394
96818.2909156183
96818.33131284446
96818.37639595119
96818.42634836437
96818.48131565805
96818.54137850042
96818.60650917469
96818.67662915275
96818.75175411574
96818.07614325732
96818.07726900108
96818.08004756914
96818.08448187978
96818.09068965666
96818.09882125368
96818.10905892092
96818.12161393117
96818.13672276794
96818.15464254416
96818.17564564252
96818.20001353799
96818.22803000388
96818.25997386579
96818.29611101364
96818.33668490921
96818.38190705291
96818.43195273292
96818.48695914731
96818.54699845321
96818.61203559433
96818.68198843485
96818.75687343204
96387.63442937992
96486.89695661358
96890.27434616367
97157.56920272834
97689.03925531964
97635.15433936656
97644.05002792091
97623.60952177903
97825.17221723826
97722.02360747386
97667.93819085848
97644.47521196614
97841.8202100139
97785.35968205691
97757.92344375057
97747.11744570501
97833.44668111943
97865.26312188257
97857.72625888772
97851.88255415547
97000.73734206031
97107.86894942279
97224.10145271252
97330.12668917839
96814.58600548861
96814.48374325983
96814.47890674362
96814.48886046701
96814.0847050984
96813.84576475393
96813.62171545897
96813.35182676726
96813.79620023553
96813.50852093479
96813.26072270374
96813.03221642668
96813.61185693111
96813.27690848261
96812.9819164042
96812.70735566628
96813.36747856557
96813.00197544122
96812.64792434432
96812.29346388695
96813.01615564978
96812.5735102575
96812.1275343436
96811.68165096395
96812.75205073012
96812.24978750103
96811.72699809499
96811.24316699398
96812.69362479378
96812.17333440023
96811.70375280869
96811.33914343557
96812.85297322273
96812.34182865155
96811.80169925654
96811.51353490028
96813.27563166404
96812.82369769669
96812.31990110448
96811.73564144653
96813.91844749553
96813.59562118704
96813.22246616035
96812.73076046089
96814.60535389028
96814.41522150888
96814.20292059737
96813.91825291204
96815.23902046282
96815.13863609542
96815.031849078
96814.88937044443
96815.79652483016
96815.75756146127
96815.72136838612
96815.67224345906
96816.27548423644
96816.2762926008
96816.28420071991
96816.28996106013
96816.68177076762
96816.70736354496
96816.74121836173
96816.77741093749
96817.02464732052
96817.06495809507
96817.11322439133
96817.16546289693
96817.31387399865
96817.36251862888
96817.4182917861
96817.47844304325
96817.55812142353
96817.6111072674
96817.67034342943
96817.73377576411
96817.764803457
96817.8195271677
96817.87962475463
96817.94361127471
96817.94008328168
96817.99494727488
96818.05437718146
96818.11726080468
96818.08906907117
96818.14314625293
96818.201130524
96818.26216765401
96818.21596316117
96818.268734012
96818.32486899136
96818.38371378359
96818.32416170156
96818.37536159565
96818.42948609535
96818.48605445077
96818.41640928201
96818.46588694013
96818.51785653565
96818.57189263345
96818.49508614639
96818.54287503788
96818.59284773005
96818.64469363457
96818.56198210851
96818.60815009243
96818.65624065412
96818.7059981473
96818.61864379128
96818.6633009137
96818.70966178447
96818.7575132818
96818.66634263848
96818.70962774711
96818.75443473076
96818.80058591771
96818.70611786266
96818.74818668632
96818.79162832099
96818.83629364907
96818.73881350404
96818.77983242918
96818.82210337716
96818.86550010958
96818.76511135971
96818.80525215992
96818.84654892366
96818.88889350246
96818.78554827964
96818.82498570601
96818.86550486606
96818.90701232936
96818.80054512271
96818.83945622604
96818.87939446815
96818.92027423138
96818.81038574362
96818.84894372626
96818.88849022462
96818.92895148859
96818.81527813859
96818.85367268942
96818.89303796254
96818.93328660002
96975.61135787146
96826.74844190326
96826.20699851512
96826.02736207901
96826.11738549318
96826.19023174516
96826.24596723696
96826.28211905865
96826.30010224816
96826.30021607339
96826.28723098403
96826.26563201424
96826.23968342075
96826.21287357538
96826.18761614556
96826.1656906865
96826.14839530412
96826.13661835714
96826.13091134028
97506.13226257527
97163.02320732018
96831.42397179522
96826.15302916866
96826.16006505158
96826.16246207923
96826.21528639703
96826.26401108164
96826.29207887541
96826.29589202619
96826.28127529593
96826.25501407631
96826.22334464529
96826.190795156
96826.16028910362
96826.1339570584
96826.11328839569
96826.09926408473
96826.09248683423
97605.15315196376
97556.19797910213
97367.05576046606
96899.46077929861
96826.35201134735
96826.27100431023
96826.24160876968
96826.25246948146
96826.28673043131
96826.29370009732
96826.27503654773
96826.24157595487
96826.20196541464
96826.16169219228
96826.12434045326
96826.09239444537
96826.06750520741
96826.05070791942
96826.04263686908
97726.85434255458
97702.72800122949
97693.40372824683
97549.94505872049
96980.0484360539
96826.10708625321
96826.2340573894
96826.25370461967
96826.29046333869
96826.29567192333
96826.26860117668
96826.22436432664
96826.17402089517
96826.1238326615
96826.07803774724
96826.03938591678
96826.00956437661
96825.98957013464
96825.98002240791
97840.34452279609
97831.45414604369
97821.84217510594
97820.92265677048
97602.19743529035
96919.87010126554
96825.89780100306
96826.33015380238
96826.33410700434
96826.3064965387
96826.26131969078
96826.20148837531
96826.13684712193
96826.07443616196
96826.01878738152
96825.97258111551
96825.93733517564
96825.91387916906
96825.90275133663
97792.37433132691
97962.15974520182
97941.36256175027
97936.8976243721
97945.43984641574
97419.12732134121
96832.91112847043
96826.66099485778
96826.46235793369
96826.33352513181
96826.25112111418
96826.16905830795
96826.08623733679
96826.0096728815
96825.94328297424
96825.88912581306
96825.84831458291
96825.82136583146
96825.80866406584
96889.12456705769
97258.16434598152
97958.7974921261
98051.24217743118
98060.23469768075
97987.63472249392
97093.74701093615
96826.83054368818
96826.54695661231
96826.33889041198
96826.22138845267
96826.11745866189
96826.0156934518
96825.92458118388
96825.84759690538
96825.78584043303
96825.73985173354
96825.7097108548
96825.69558926507
96812.89885776701
96812.70879779538
97078.38209149134
97988.29657190299
98175.24979840881
98202.89810809649
97487.51564163374
96826.91013994662
96826.57767164633
96826.33474883299
96826.17368403584
96826.03872903908
96825.91752773603
96825.81334804327
96825.72740484122
96825.65946438035
96825.60938540963
96825.57677221193
96825.56156688729
96812.69761548519
96812.47637299479
96811.9818314507