/*--------------------------------*- C++ -*----------------------------------*\
| =========                 |                                                 |
| \\      /  F ield         | OpenFOAM: The Open Source CFD Toolbox           |
|  \\    /   O peration     | Version:  2206                                  |
|   \\  /    A nd           | Website:  www.openfoam.com                      |
|    \\/     M anipulation  |                                                 |
\*---------------------------------------------------------------------------*/
FoamFile
{
    version     2.0;
    format      ascii;
    arch        "LSB;label=32;scalar=64";
    class       surfaceScalarField;
    location    "0.25";
    object      phi;
}
// * * * * * * * * * * * * * * * * * * * * * * * * * * * * * * * * * * * * * //

dimensions      [0 3 -1 0 0 0 0];

oriented        oriented;

internalField   nonuniform List<scalar> 
4432
(
4.481384070312354e-06
-4.481384110418574e-06
9.030621624879204e-06
-4.549237590973487e-06
1.355432684745595e-05
-4.523705261456552e-06
1.810315913078159e-05
-4.548832325027985e-06
2.268096373798413e-05
-4.577804652091479e-06
2.727467751183408e-05
-4.593713824597105e-06
3.187175047483072e-05
-4.597073022438042e-06
3.645458153948949e-05
-4.582831133695025e-06
4.099433573404873e-05
-4.539754271356064e-06
4.544647785931054e-05
-4.452142205174297e-06
4.974533615217839e-05
-4.298858370001132e-06
5.379669651115349e-05
-4.05136042281302e-06
5.746801310363572e-05
-3.671316617149447e-06
6.057592493903548e-05
-3.107911764753723e-06
6.287212886189901e-05
-2.296203662887683e-06
6.403102394431671e-05
-1.158894503162576e-06
6.365480491708406e-05
3.762201802985724e-07
6.123443985788538e-05
2.420367239897792e-06
5.617759547320636e-05
5.05684844387322e-06
4.783299806690823e-05
8.344605096472099e-06
3.571637558188156e-05
1.211663783264499e-05
1.933173358719861e-05
1.638467412759611e-05
1.933189467361789e-05
4.538620452243658e-06
-9.020004610868767e-06
9.098412528347923e-06
-9.10902971525471e-06
1.366335844365015e-05
-9.08865122824196e-06
1.825129231953074e-05
-9.136766255198788e-06
2.28624374571595e-05
-9.18894984719759e-06
2.748969837877114e-05
-9.220974809091225e-06
3.212252596851454e-05
-9.229900682727113e-06
3.674385562869371e-05
-9.204160872131087e-06
4.132589587495482e-05
-9.121794601202312e-06
4.582583122435053e-05
-8.952077638507846e-06
5.018038017818895e-05
-8.653407402559618e-06
5.429862038523787e-05
-8.169600688683333e-06
5.805238922871888e-05
-7.425085455539022e-06
6.126379085996753e-05
-6.319313234312023e-06
6.369141410046712e-05
-4.72382645237464e-06
6.501813658978544e-05
-2.48561612176981e-06
6.480383450412538e-05
5.905238152616785e-07
6.256766646760604e-05
4.656537912838421e-06
5.766337739386746e-05
9.961141975866966e-06
4.93877993794518e-05
1.662019102679851e-05
3.705106085091344e-05
2.445339180139847e-05
2.017930174365848e-05
3.325646610544007e-05
3.951144381225325e-05
4.532873312363569e-06
-1.35528779880848e-05
9.076521103494495e-06
-1.365267757063164e-05
1.364360041674747e-05
-1.365573060778869e-05
1.823395902169365e-05
-1.372712492717486e-05
2.284552841194893e-05
-1.380051930514654e-05
2.7475090104635e-05
-1.385053657158411e-05
3.211437708499303e-05
-1.386918773632492e-05
3.674775782878866e-05
-1.38375416917627e-05
4.134936514020704e-05
-1.372340198809115e-05
4.587909269664445e-05
-1.348180526508957e-05
5.027721891763595e-05
-1.30515336835411e-05
5.445746764358459e-05
-1.234984944203823e-05
5.829731829798395e-05
-1.12649360296477e-05
6.162444917787166e-05
-9.646443780996398e-06
6.420078332378069e-05
-7.300159837852719e-06
6.570536204401954e-05
-3.990193543352607e-06
6.57411961242777e-05
5.546917958006883e-07
6.378697571307064e-05
6.610761449241341e-06
5.921457137016376e-05
1.453355102001032e-05
5.124200342214076e-05
2.459276673398409e-05
3.898533442721298e-05
3.671007596941106e-05
2.166503322476363e-05
5.057680161813054e-05
6.117674130643113e-05
4.526711789632652e-06
-1.807958984350043e-05
9.058329516845276e-06
-1.818429536011907e-05
1.362444083432438e-05
-1.822184198595658e-05
1.821501030884821e-05
-1.831769445877474e-05
2.282756065538622e-05
-1.841306970381127e-05
2.746176879370473e-05
-1.848474475682926e-05
3.211183015996768e-05
-1.851924914369329e-05
3.676443653094395e-05
-1.84901480952251e-05
4.139669603692406e-05
-1.835566151338771e-05
4.597249570420549e-05
-1.805760493282815e-05
5.043734358919601e-05
-1.751638154581664e-05
5.471188118616525e-05
-1.662438695456473e-05
5.868203006132323e-05
-1.52350846316793e-05
6.218378318212436e-05
-1.314819623077553e-05
6.498550175430201e-05
-1.010187715632735e-05
6.677542943200577e-05
-5.780119363481612e-06
6.713655153861495e-05
1.935723021124788e-07
6.557997948247781e-05
8.167337185984901e-06
6.145315538452448e-05
1.866038012333551e-05
5.392161537495581e-05
3.212431436454994e-05
4.187762371765548e-05
4.875408262469661e-05
2.400455465764519e-05
6.84499075713683e-05
8.518150687027815e-05
4.517377275797025e-06
-2.259696714810884e-05
9.038769918648322e-06
-2.270568802245771e-05
1.360268361361271e-05
-2.278575569158715e-05
1.819263404568575e-05
-2.290764488834082e-05
2.280744264067156e-05
-2.302787827905431e-05
2.744935919303591e-05
-2.312666126815631e-05
3.211523892395564e-05
-2.318512880685215e-05
3.679487150612733e-05
-2.316978057470714e-05
4.146937007123388e-05
-2.303015993080274e-05
4.610793483148531e-05
-2.269616948997097e-05
5.066308254307349e-05
-2.207152899185665e-05
5.506497452990093e-05
-2.102627853627513e-05
5.921127646518859e-05
-1.93813858044013e-05
6.294915657104467e-05
-1.688607494556054e-05
6.605388412897302e-05
-1.320660260246717e-05
6.821300416120033e-05
-7.939236795276732e-06
6.902952199141673e-05
-6.229423267649582e-07
6.799371606414866e-05
9.203147415067214e-06
6.447514766935215e-05
2.217895404141104e-05
5.758539288850169e-05
3.90140769549442e-05
4.595761530163361e-05
6.038187548283993e-05
2.749785226003406e-05
8.690971174820878e-05
0.0001126793134890387
4.506465413218095e-06
-2.710343246384706e-05
9.019402142307619e-06
-2.721862463195e-05
1.358051616771067e-05
-2.734686957280166e-05
1.816998847327833e-05
-2.749711701621913e-05
2.278877187625165e-05
-2.764666146056648e-05
2.744163524101147e-05
-2.777952435503328e-05
3.212835787557436e-05
-2.787185109047235e-05
3.684248191353603e-05
-2.788390416692481e-05
4.157007274301221e-05
-2.775775019451059e-05
4.628693358570674e-05
-2.741302962116696e-05
5.0954422876209e-05
-2.673901740448124e-05
5.55151872114963e-05
-2.558704165404476e-05
5.988270401203939e-05
-2.374890066203357e-05
6.391932945763791e-05
-2.09226974273536e-05
6.74101674994635e-05
-1.669743690990713e-05
7.004876386043177e-05
-1.05778295141378e-05
7.143068352847971e-05
-2.004858373003332e-06
7.105404305904908e-05
9.579792849605226e-06
6.832070307986131e-05
2.491230060852591e-05
6.233955755477808e-05
4.4995231415796e-05
5.150459026582366e-05
7.121685947170833e-05
3.271906926939517e-05
0.0001056952809394434
0.0001453982972587433
4.50060921583395e-06
-3.160404127890467e-05
9.006629028975979e-06
-3.172464399986636e-05
1.356415324147678e-05
-3.190439328692362e-05
1.815320493642857e-05
-3.208616814074932e-05
2.277706442712145e-05
-3.227052028662278e-05
2.744319606686465e-05
-3.244565520605736e-05
3.215461520742636e-05
-3.258326927813276e-05
3.690914775744567e-05
-3.263843554909305e-05
4.169860762628058e-05
-3.254720862130408e-05
4.650651304875247e-05
-3.222093326404128e-05
5.130471195832831e-05
-3.15372141349929e-05
5.605109188537243e-05
-3.033341860104221e-05
6.067857365458846e-05
-2.837637795519475e-05
6.506810297877313e-05
-2.531222056420489e-05
6.90164577025842e-05
-2.064578480751399e-05
7.222077293505424e-05
-1.378213950425937e-05
7.429585990020275e-05
-4.079941919103299e-06
7.472244800340721e-05
9.153210075799198e-06
7.298544050677133e-05
2.664931676457893e-05
6.826971836790542e-05
4.971096568707863e-05
5.886881372654024e-05
8.061778486043441e-05
4.069670368238656e-05
0.0001238674513710155
0.0001860949057516534
4.507612739619863e-06
-3.611165236783942e-05
9.001073449970226e-06
-3.621810295282892e-05
1.355652225692649e-05
-3.645984018624586e-05
1.814525664807306e-05
-3.667490041747216e-05
2.277492820319276e-05
-3.690018945361502e-05
2.745633761535141e-05
-3.712706186542703e-05
3.21960113942617e-05
-3.732293981472196e-05
3.69966053965603e-05
-3.743902565791629e-05
4.185651322433782e-05
-3.740711171039326e-05
4.67680754392398e-05
-3.713248967599854e-05
5.171544063054966e-05
-3.648457221909509e-05
5.667450051177099e-05
-3.529246910815485e-05
6.160055579945313e-05
-3.330242018946883e-05
6.63960756803495e-05
-3.010772355711641e-05
7.087372763736261e-05
-2.512341882241465e-05
7.473707150266574e-05
-1.764547020149092e-05
7.759248255229079e-05
-6.935349096551748e-06
7.89320119710455e-05
7.81368244277784e-06
7.838564933305904e-05
2.719568659357889e-05
7.536344733375598e-05
5.273318518338111e-05
6.837445908290204e-05
8.760681115388198e-05
5.315836761859073e-05
0.0001390836439843746
0.0002392531700015042
-2.490238815119296e-06
2.641102048212565e-06
-7.899599132500638e-06
5.560177207333198e-06
-1.129796989780024e-05
3.549105138451268e-06
-1.212862763707617e-05
9.812703823285312e-07
-1.031128358488999e-05
-1.666900572049305e-06
-6.828786616498753e-06
-3.332276147240123e-06
-2.772655079499899e-06
-3.906191273530605e-06
1.092921435607293e-06
-3.71597728610866e-06
4.284663522980932e-06
-3.042541774974961e-06
6.722153148802998e-06
-2.288725263393762e-06
8.278855581698855e-06
-1.408397462937318e-06
9.005072200112247e-06
-5.783731004519543e-07
9.008122640918553e-06
1.443492341202055e-07
8.397388358647864e-06
7.577249284611168e-07
7.281865883165261e-06
1.262153223477061e-06
5.777717525338306e-06
1.650479243170266e-06
3.992016707580296e-06
1.931800046341368e-06
2.027571630741909e-06
2.110386947874044e-06
2.17343482454496e-06
-3.050426275896219e-06
5.842409187656857e-06
-9.203606068351765e-06
1.186419110993494e-05
-1.281376362296546e-05
7.310014989375971e-06
-1.345281682327156e-05
1.770953711520235e-06
-1.117078558557106e-05
-3.7984719370498e-06
-7.209441663167097e-06
-7.143382692345557e-06
-2.731524526115033e-06
-8.234151554012571e-06
1.438456468533877e-06
-7.736345053231349e-06
4.912348851188618e-06
-6.367219344533909e-06
7.50849138328229e-06
-4.736093699162211e-06
9.15358086824425e-06
-2.905175547580139e-06
9.907700276070579e-06
-1.184645630999898e-06
9.872038564020815e-06
3.274114742935631e-07
9.173009175803048e-06
1.603743818954665e-06
7.936343696984057e-06
2.645446753709904e-06
6.290100968609486e-06
3.443049022667296e-06
4.344227381725171e-06
4.023768276761488e-06
2.203242553770324e-06
4.397308788502915e-06
4.522535204600012e-06
-2.963435117717561e-06
8.956759112824289e-06
-9.96973401423969e-06
1.902135429716715e-05
-1.389101621380254e-05
1.138208109321448e-05
-1.448693042542512e-05
2.51752893092219e-06
-1.182501812113773e-05
-6.309899757450905e-06
-7.443723928021309e-06
-1.137441131801572e-05
-2.65807831861662e-06
-1.286980754535345e-05
1.730079845154331e-06
-1.197485828344313e-05
5.296344456481139e-06
-9.784243030469077e-06
7.888876532059578e-06
-7.179831567129299e-06
9.511140146851239e-06
-4.379114495803781e-06
1.023771882820712e-05
-1.76337053313385e-06
1.016657620789689e-05
5.459561314913465e-07
9.414245812061086e-06
2.503060849177187e-06
8.13901720628188e-06
4.067297146865733e-06
6.443256671665245e-06
5.285127833770579e-06
4.446791634640934e-06
6.166317481513091e-06
2.255217381693942e-06
6.734808583967359e-06
6.923598366743284e-06
-2.623982821436553e-06
1.173167960658509e-05
-1.102336447707949e-05
2.757163823112497e-05
-1.55249332476756e-05
1.603445404090169e-05
-1.609265053369032e-05
3.235930322112988e-06
-1.282131370985765e-05
-9.430792809339333e-06
-7.791907943285334e-06
-1.625356047030168e-05
-2.556586460172246e-06
-1.795509798268118e-05
2.072379225250535e-06
-1.645413105801487e-05
5.769570032515988e-06
-1.333215261935622e-05
8.397492233006851e-06
-9.658928741868359e-06
9.993572101340826e-06
-5.826849412158696e-06
1.06672703703873e-05
-2.289204469028396e-06
1.052577809087778e-05
8.348526570468445e-07
9.713588679618385e-06
3.462232352989828e-06
8.366232207416872e-06
5.561265650544924e-06
6.608420347568597e-06
7.189244346034202e-06
4.554258027855227e-06
8.366547691683348e-06
2.308468968935882e-06
9.126505284485933e-06
9.377894177146369e-06
-1.993632271226213e-06
1.387730560203256e-05
-1.241122426481727e-05
3.814023386747599e-05
-1.774533472798218e-05
2.15191201532722e-05
-1.828589626393926e-05
3.927070257590351e-06
-1.410485942485704e-05
-1.346203100703894e-05
-8.17854173406272e-06
-2.203004992465584e-05
-2.32855672200065e-06
-2.365507348267603e-05
2.603134749164138e-06
-2.123607071610323e-05
6.427189853454645e-06
-1.700687144795953e-05
9.074693390414406e-06
-1.215756538089397e-05
1.063765142097698e-05
-7.241435102414238e-06
1.123175230871895e-05
-2.735426917944496e-06
1.099302117832485e-05
1.220990800068355e-06
1.00970053281992e-05
4.505223902496421e-06
8.661965402255971e-06
7.142904154739939e-06
6.822353561791171e-06
9.175142203266982e-06
4.692762388898038e-06
1.064218451202098e-05
2.376523442797635e-06
1.158862735903928e-05
1.190021854619679e-05
-9.009619360425294e-07
1.490961157158997e-05
-1.405024290258471e-05
5.142627806168536e-05
-2.047917241943685e-05
2.809628957632255e-05
-2.098113414137217e-05
4.579048930572598e-06
-1.555057274003929e-05
-1.87468781405231e-05
-8.513694353368139e-06
-2.892011030104477e-05
-1.908219726479904e-06
-3.011108930060035e-05
3.35936749411883e-06
-2.63538790744565e-05
7.297029922120698e-06
-2.079513225749351e-05
9.956036414940407e-06
-1.466765222342431e-05
1.145491274748386e-05
-8.591904563149e-06
1.194611520013773e-05
-3.078733381760739e-06
1.159615785842363e-05
1.718358268776809e-06
1.057745432944377e-05
5.670894704161103e-06
9.030511422803415e-06
8.836428348455355e-06
7.0885327817754e-06
1.126338306035701e-05
4.864792077901624e-06
1.301194258791116e-05
2.460875078201619e-06
1.413839639452805e-05
1.45068615422041e-05
1.194594382715103e-06
1.407560135559916e-05
-1.582924137273877e-05
6.902738989121889e-05
-2.357452018861836e-05
3.596335512821853e-05
-2.340012413927591e-05
4.558711004903044e-06
-1.684712056995494e-05
-2.517246896296525e-05
-8.690757415835234e-06
-3.694405317319209e-05
-1.242548958888873e-06
-3.741320773126469e-05
4.401896030792684e-06
-3.184882143384495e-05
8.498918585646549e-06
-2.474271581133719e-05
1.10988602123471e-05
-1.711861538408881e-05
1.247658297405157e-05
-9.821179963163617e-06
1.280549396554321e-05
-3.259728073348185e-06
1.231765264316982e-05
2.353612703282131e-06
1.115243393006965e-05
6.983069946147019e-06
9.470862191929933e-06
1.066456009086907e-05
7.405921560159115e-06
1.347455701279643e-05
5.069639319845368e-06
1.549420825044824e-05
2.561296158018723e-06
1.679255433291087e-05
1.72138869987979e-05
4.050780460392436e-06
8.83291315025448e-06
-1.738828587398116e-05
8.441695670192214e-05
-2.487373585493261e-05
4.371850612585239e-05
-2.357324812541761e-05
3.423304018255153e-06
-1.717217604881911e-05
-3.156755631527078e-05
-8.293771469348819e-06
-4.577027024947533e-05
-2.715599446288963e-07
-4.531128588018216e-05
5.89371169174035e-06
-3.786769116560173e-05
1.005883905253951e-05
-2.875876413254457e-05
1.259658751390356e-05
-1.950735809516057e-05
1.377396407540562e-05
-1.085006549166912e-05
1.388993604910697e-05
-3.22776142252255e-06
1.317444037768252e-05
3.216523251006064e-06
1.182294663956377e-05
8.481505268344319e-06
9.981459506623462e-06
1.265257973234456e-05
7.772849069814617e-06
1.582936433377662e-05
5.305945459108746e-06
1.81070528403863e-05
2.676645214298525e-06
1.95676232333075e-05
2.003621279475836e-05
9.514509472960824e-06
-4.562615616296938e-05
1.914812239094599e-05
-4.585170986602763e-05
2.880550063566716e-05
-4.611721196128682e-05
3.855705228431403e-05
-4.642644495350189e-05
4.842111143895411e-05
-4.67642406415858e-05
5.841770630405e-05
-4.712364760948717e-05
6.856979783237207e-05
-4.747502065447005e-05
7.889594651752122e-05
-4.776516155777549e-05
8.940927155554176e-05
-4.792042123216126e-05
0.000100115454469737
-4.783865360965557e-05
0.0001110108913486392
-4.737998578457475e-05
0.0001220902747413712
-4.637182099908541e-05
0.0001333151644569783
-4.45272654345829e-05
0.0001445365390459518
-4.132904166653118e-05
0.0001554299311307886
-3.601675237010446e-05
0.0001655132865488486
-2.772878221418963e-05
0.0001742533056717335
-1.567536343215983e-05
0.0001812871184410821
7.798685119987524e-07
0.000186699478378945
2.178336964281319e-05
0.0001911392989435761
4.829344883586913e-05
0.0001975315755259345
8.121466396952029e-05
0.0002178059276947406
0.0001188096009350438
0.0001519819869033169
0.0003050771830243792
9.418187550306683e-06
-5.504432902606791e-05
1.894986491125791e-05
-5.538337185751331e-05
2.855695324114928e-05
-5.572428390873567e-05
3.826596273122151e-05
-5.613543669293042e-05
4.811567740441442e-05
-5.661393574598535e-05
5.81450931171377e-05
-5.715304125972752e-05
6.839568944810917e-05
-5.772559151175201e-05
7.891105255588807e-05
-5.828049465815313e-05
8.973831703346339e-05
-5.874764981958614e-05
0.0001009269985546452
-5.90272918497907e-05
0.0001125301507151735
-5.898308541951071e-05
0.0001246186432939206
-5.846024311263422e-05
0.0001372226123139216
-5.713113617277636e-05
0.0001502351428232794
-5.434145266701456e-05
0.000163351572606653
-4.913306195768453e-05
0.0001761164027895025
-4.049352150714099e-05
0.0001881271074107349
-2.768603137345409e-05
0.0001992245863780993
-1.03176518798358e-05
0.0002093589613729613
1.164895304810319e-05
0.0002203840804793351
3.726836132300013e-05
0.0002357233177467716
6.587553816293498e-05
0.0002583243343348731
9.62088373946994e-05
0.0001273160626248368
0.0002829905092566419
9.331516883714411e-06
-6.437581649255668e-05
1.875859277400041e-05
-6.481041720358515e-05
2.827455413774163e-05
-6.524021296995132e-05
3.791212563324012e-05
-6.577297357930151e-05
4.77222489423556e-05
-6.642402134810038e-05
5.776205594254077e-05
-6.719280619856649e-05
6.809455984082225e-05
-6.80580473626813e-05
7.879135617120228e-05
-6.897723495325963e-05
8.993663272590441e-05
-6.989286029695263e-05
0.0001016267445551941
-7.071732554910445e-05
0.0001139687714687901
-7.132501976994298e-05
0.0001270856480050568
-7.157699967493876e-05
0.0001410082255096417
-7.105354088854997e-05
0.0001556057749232471
-6.89387990369747e-05
0.00017047418809611
-6.400126686087937e-05
0.0001849943757422645
-5.501354016819978e-05
0.000198934266078023
-4.162583523470609e-05
0.0002119489386773688
-2.333238301709649e-05
0.0002250567345386382
-1.459009209036213e-06
0.000238032618108157
2.429236883253845e-05
0.0002521332855618856
5.177487612316959e-05
0.0002690530311782953
7.928923999629463e-05
0.0001044231530361916
0.0002919462459670448
9.213566571611004e-06
-7.358933412809623e-05
1.851072223550412e-05
-7.410752241924859e-05
2.79016569949217e-05
-7.463109474752211e-05
3.743446947602189e-05
-7.530572988829223e-05
4.717388149813811e-05
-7.616337277435797e-05
5.719468817292376e-05
-7.721354582223689e-05
6.758297943383325e-05
-7.844626244118989e-05
7.84394788038226e-05
-7.983364669723708e-05
8.988349702214425e-05
-8.133677726758937e-05
0.0001020541973126249
-8.288791050851869e-05
0.0001150959454266463
-8.436663779094446e-05
0.0001291079477378432
-8.55888481076753e-05
0.0001439846292495063
-8.592994876394006e-05
0.0001596560071705829
-8.460984010011143e-05
0.0001757045227583272
-8.004931185130955e-05
0.0001907231190598514
-7.003165155109137e-05
0.0002050335193867613
-5.593613081671887e-05
0.0002185885703047542
-3.688875302368542e-05
0.0002321601167962035
-1.502675227374758e-05
0.0002465247078458678
9.931650819920868e-06
0.0002591715177625091
3.912778182012094e-05
0.0002742121455354871
6.424837599517958e-05
8.56912817064597e-05
0.0002929440440025256
9.078668464970263e-06
-8.266793371993077e-05
1.822032586843159e-05
-8.324910921431369e-05
2.74580096382577e-05
-8.386870493982502e-05
3.685680559190375e-05
-8.470444855341661e-05
4.649498022105719e-05
-8.580146472213306e-05
5.646377744604733e-05
-8.718225192589286e-05
6.687155617126124e-05
-8.885393770962812e-05
7.783988052506819e-05
-9.08018527542792e-05
8.949311192632887e-05
-9.298987887312922e-05
0.0001019596654489469
-9.535432587231498e-05
0.0001153416151287625
-9.774844510258691e-05
0.0001295951672297782
-9.984227751401181e-05
0.0001441323768608733
-0.0001004667057486295
0.0001593050188240246
-9.978474494657134e-05
0.0001764103396769527
-9.714162882683351e-05
0.0001912349721425995
-8.489879155971049e-05
0.0002042899999023563
-6.909424838302553e-05
0.0002165890525440868
-4.952199454906839e-05
0.0002284611640312533
-2.712952308150073e-05
0.0002403357425572579
-1.750780769202778e-06
0.0002539092827939218
2.587629238542249e-05
0.000268302313093378
5.002419509010333e-05
7.093059241609188e-05
0.0002831506541947247
8.933875422757846e-06
-9.1601726961472e-05
1.789666589962795e-05
-9.221181544440234e-05
2.695540198025028e-05
-9.29273549431698e-05
3.618822647463587e-05
-9.393718325406404e-05
4.568077962736846e-05
-9.529392262764489e-05
5.553077555597103e-05
-9.703214137919998e-05
6.584659131561294e-05
-9.916962560147232e-05
7.672663235040184e-05
-0.0001016817554757496
8.824216878435514e-05
-0.0001045052879862887
0.0001004310675902874
-0.0001075430907353431
0.0001131151458850345
-0.0001104352392228237
0.0001266697863011888
-0.0001133830877934813
0.0001387310817317841
-0.0001124092771198576
0.0001518585278555338
-0.0001129336741105243
0.0001758952842836829
-0.000124117915879144
0.0002049611116422965
-0.0001160342319220427
0.0002367759224369543
-0.0001001420887121589
0.0002571164583455684
-6.809984237786509e-05
0.0002701383633479081
-3.932889945483291e-05
0.000269522482280486
-3.98108532307815e-06
0.0002620417902322611
3.033228704116555e-05
0.0002658345250136961
4.757311419449831e-05
6.095980026780013e-05
0.0002785403131643738
8.764460059058847e-06
-0.0001003661101196565
1.750438168718105e-05
-0.0001009516572344781
2.632515296895397e-05
-0.0001017480508520984
3.53088669481589e-05
-0.0001029208192579499
4.453493024021766e-05
-0.000104519900167761
5.409173472777529e-05
-0.0001065888258327346
6.401489997080638e-05
-0.0001090926110781851
7.432852712700063e-05
-0.0001120002245130988
8.524577057029426e-05
-0.000115400950942694
9.660287725292316e-05
-0.0001187861426973899
0.0001080845205078329
-0.000121829360381402
0.0001250256077129538
-0.0001313255208581195
0.0001138344722611724
-0.0001021705642213748
0.0001125443869427073
-0.0001089215030042217
0.0001563303343067604
-0.0001652065277037305
0.0002215694199570509
-0.0001817327188621861
0.0002587840132983179
-0.0001370787829134529
0.0002748132904988281
-8.360337626440031e-05
0.0002885498410152761
-5.241176240308455e-05
0.0003121816516499685
-2.842716441201194e-05
0.0003414044455070895
-1.173321075953238e-06
0.0003569883957689968
3.040035198321953e-05
5.9659431384499e-05
0.0003590133591477485
8.527793102656838e-06
-0.000108894575909685
1.691451868479969e-05
-0.0001093361850903783
2.535693707537109e-05
-0.0001101789402317256
3.394527668903213e-05
-0.0001114764567901605
4.276838222907994e-05
-0.0001132703128954547
5.187493710012388e-05
-0.0001155595712733225
6.121625047497856e-05
-0.0001181542697097676
7.133582359376817e-05
-0.0001228199723992685
8.394954269412544e-05
-0.0001300672787097551
9.583650249088283e-05
-0.0001341083370916107
9.442606215766117e-05
-0.000122764524150537
7.038612924590503e-05
-0.0001058870944858878
2.990407784040585e-05
-6.09723836257107e-05
8.232031265803492e-05
-0.0001628281866595994
0.0001183628313543422
-0.0002004534692264912
0.0001440314353806333
-0.000205939571495209
0.0001704348301564489
-0.000163682926839621
0.0001920657604442404
-0.0001048286522525
0.0002162481160825493
-7.670893015352984e-05
0.000248706777765238
-6.121548961352895e-05
0.0002918879543807781
-4.545458479879681e-05
0.000335601602834748
-1.573122913962511e-05
2.528879505995747e-05
0.0003692775708331098
8.351958996941408e-06
-0.0001187538893674105
1.634063747306469e-05
-0.0001189312797598239
2.455825422471865e-05
-0.0001203971858415335
3.312818126704807e-05
-0.0001223970124214872
4.252571393169115e-05
-0.0001256822265353402
5.349493756956929e-05
-0.0001304009865247675
6.175417945152668e-05
-0.0001302058252963703
7.542362144496451e-05
-0.0001329228215750368
8.695075141202055e-05
-0.0001385749513963276
9.243461766618399e-05
-0.0001383249890470545
9.564329090482465e-05
-0.0001260834748589831
9.103340447089588e-05
-0.000101888071457686
8.888009740950942e-05
-5.944377641971584e-05
8.893007432123199e-05
-0.0001646242864338097
0.0001015385986291249
-0.0002122940185864718
0.0001074408292723018
-0.0002127740895537117
0.0001074861522028399
-0.0001674289986461536
0.000122244608824918
-0.0001210057719391619
0.0001470662123260592
-0.000102857903210027
0.000180029307003065
-9.528263141114452e-05
0.0002208722984866859
-8.693571543229204e-05
0.0002718128331626572
-6.741408789805872e-05
-2.85690212165581e-05
0.0003259622912515378
1.009244254663303e-05
-0.0001261497313449645
2.017987405010171e-05
-0.0001261950738999838
2.954079416667582e-05
-0.0001278097929091504
4.012830436899532e-05
-0.0001310653948142201
5.120827853101455e-05
-0.0001350355896071543
6.233421953192177e-05
-0.000140573959642618
7.755977096746352e-05
-0.0001452661887560491
9.387142575641296e-05
-0.000149515507964401
0.00010637132343518
-0.0001518824920020181
0.0001149508810231968
-0.0001480199632306164
0.0001220722922458851
-0.0001341163622112648
0.0001304968692436826
-0.0001109430361637941
0.0001485368584582898
-7.91301029858073e-05
0.0001197944377018559
-0.0001346399451357727
0.000103815792407011
-0.0001967282923677521
8.682848545606165e-05
-0.0001963547472249084
7.390275907508542e-05
-0.0001581133890475107
8.421639297067675e-05
-0.000132785525320935
0.0001058847640805926
-0.0001250997001005378
0.0001330029850086079
-0.0001226103793895444
0.0001653984930100956
-0.0001192591276105353
0.0002067434822508924
-0.0001084413073548829
-8.262821628842885e-05
0.0002618954772393806
8.69087522117655e-06
-0.0001349776262471302
1.910257833151478e-05
-0.0001368937265518116
3.044300809459031e-05
-0.0001392874548955186
4.206363181019629e-05
-0.0001430650337328834
5.488098752927348e-05
-0.000148374960233479
6.86172570171779e-05
-0.0001550092570549787
8.375820752433441e-05
-0.0001613294705093881
9.904008298209605e-05
-0.0001658916638914444
0.0001125312329703546
-0.000166581311378203
0.0001238454608903369
-0.0001605322825464831
0.0001340550233738567
-0.0001452604175449065
0.0001455363789666988
-0.0001232298827381289
0.0001662887227103314
-0.0001014999473178052
0.0001555883086153547
-0.0001242261074929014
0.0001204409600221068
-0.0001603059856520311
8.244807819824164e-05
-0.0001616041967663473
6.30538292140278e-05
-0.0001404020030416045
6.45893732028457e-05
-0.0001345840151119892
7.666676896632418e-05
-0.0001370760953197834
9.526303865242364e-05
-0.0001409303196690018
0.0001210073329182525
-0.0001444465939058361
0.0001580282040424787
-0.0001446351470116678
-0.0001343273561612748
0.0002112190401621433
8.009335614666176e-06
-0.0001437283923883314
1.781501179402583e-05
-0.0001473931779305457
2.825456811661618e-05
-0.0001505021245205892
3.946178988786909e-05
-0.0001550422904607184
5.163599074353257e-05
-0.0001613858719224899
6.470161384620538e-05
-0.0001690257053338744
7.854398423939285e-05
-0.0001762020125251351
9.22973082365436e-05
-0.0001807254532260048
0.0001049166744762004
-0.0001802684601296387
0.0001159782412227668
-0.0001725761904690188
0.0001252588815725157
-0.0001552725781789464
0.000132406314096881
-0.0001313478446096571
0.0001421659306996462
-0.0001125960114014224
0.0001359475720412057
-0.0001172427500122597
0.0001072459978528174
-0.0001293976613987019
6.84774267170669e-05
-0.0001237547196790011
4.779214956470435e-05
-0.0001202246160963788
4.323957698258114e-05
-0.0001299145430442589
4.797132768155457e-05
-0.000141544624710626
6.057231943982331e-05
-0.0001531583221274614
8.236817851626218e-05
-0.0001657607113353209
0.0001170755758558283
-0.0001788964666304017
-0.0001858247113459426
0.0001686926452854627
6.860198305421944e-06
-0.0001512342679902562
1.49758572778633e-05
-0.000156223680044873
2.361637550416088e-05
-0.0001598715361381213
3.298235393850765e-05
-0.0001651314088555924
4.323524436367607e-05
-0.0001723700273040432
5.424834240006093e-05
-0.0001807722031497872
6.563602161351373e-05
-0.0001883090089889102
7.656307947828827e-05
-0.0001923357025768081
8.622590683551775e-05
-0.0001905488261811182
9.451838914769578e-05
-0.0001813796302173264
0.0001006112756441785
-0.0001616604917299317
0.0001023071048672821
-0.0001338591984918894
0.0001048825031536428
-0.000115510778319781
9.89149392756092e-05
-0.0001095418669779753
7.182557987206941e-05
-0.0001010053093239583
3.863550004292362e-05
-9.149466424512035e-05
2.327777289053089e-05
-0.0001050040928136208
1.755510180961965e-05
-0.0001239664826135305
1.852258848859625e-05
-0.0001422427730954003
2.628102245629803e-05
-0.0001606737268387685
4.228330527208033e-05
-0.0001816239369520842
6.84646976767269e-05
-0.000205156561110125
-0.0002261151182894433
0.0001082007951756048
5.165478466758254e-06
-0.0001568437274044999
1.108702158218056e-05
-0.000162584573227086
1.739352726606593e-05
-0.0001665904674795338
2.428848122795334e-05
-0.0001724174454637718
3.18484889587167e-05
-0.0001802886095495531
3.983121427982926e-05
-0.0001890637034830256
4.763863527709754e-05
-0.0001963669632347585
5.43514020173342e-05
-0.0001992395766707395
5.93936558712073e-05
-0.0001957048132423531
6.291899833353004e-05
-0.00018488951883319
6.489525724032745e-05
-0.0001634494896748939
6.329519158974015e-05
-0.0001324138252356814
6.128310561088492e-05
-0.0001126556834357577
5.048169341985043e-05
-9.686410222431445e-05
2.146112229183209e-05
-7.217241498087991e-05
1.687623806220248e-06
-7.234917740555813e-05
-5.296642021441017e-06
-9.784486883092425e-05
-9.584763809320912e-06
-0.0001194448065823174
-1.115488859493343e-05
-0.000140466211040217
-8.876423678973142e-06
-0.0001628108612982527
-1.856944335015479e-06
-0.0001886042096510896
1.09906481772856e-05
-0.0002180393001446343
-0.0002454618564104488
3.02582249235131e-05
3.183907606947109e-06
-0.0001601545383382931
6.678532200728422e-06