/*--------------------------------*- C++ -*----------------------------------*\
| =========                 |                                                 |
| \\      /  F ield         | OpenFOAM: The Open Source CFD Toolbox           |
|  \\    /   O peration     | Version:  2206                                  |
|   \\  /    A nd           | Website:  www.openfoam.com                      |
|    \\/     M anipulation  |                                                 |
\*---------------------------------------------------------------------------*/
FoamFile
{
    version     2.0;
    format      ascii;
    arch        "LSB;label=32;scalar=64";
    class       volScalarField;
    location    "0.25";
    object      rho;
}
// * * * * * * * * * * * * * * * * * * * * * * * * * * * * * * * * * * * * * //

dimensions      [1 -3 0 0 0 0 0];

internalField   nonuniform List<scalar> 
2268
(
1001.36017044172
1001.360170629353
1001.360170759491
1001.360170926339
1001.360171129613
1001.360171359225
1001.360171609809
1001.360171876987
1001.360172153741
1001.360172428712
1001.360172684931
1001.360172898061
1001.360172858981
1001.360171637144
1001.360166699437
1001.360152848855
1001.36012088505
1001.360052508972
1001.359912213864
1001.359623167691
1001.358986889954
1001.357337081755
1000.688918615699
1001.360176573319
1001.360176818169
1001.360177019684
1001.360177288578
1001.360177620053
1001.360178001472
1001.360178425859
1001.360178885791
1001.360179369249
1001.360179857753
1001.360180324762
1001.360180733355
1001.360180689602
1001.360178492182
1001.36016985441
1001.360146930713
1001.360097956554
1001.360001425859
1001.359821786803
1001.359488419508
1001.358820815425
1001.357191622313
1000.460915686252
1001.360182855461
1001.36018313623
1001.360183399382
1001.360183748681
1001.360184174963
1001.360184663451
1001.360185203041
1001.360185779319
1001.360186371087
1001.360186949749
1001.360187479641
1001.360187918196
1001.360187537628
1001.360183313732
1001.360168268066
1001.360130971027
1001.360056551
1001.359920403969
1001.359689374315
1001.359303838728
1001.358607836993
1001.357022996483
1000.444928656882
1001.360188779678
1001.360189052909
1001.360189325378
1001.360189674636
1001.360190084452
1001.360190532074
1001.360190990488
1001.360191422317
1001.360191779485
1001.360192008685
1001.360192061279
1001.36019190631
1001.360190194235
1001.360181718619
1001.360155858919
1001.36009759736
1001.359990338085
1001.359806982303
1001.359518770132
1001.359079734793
1001.358362142117
1001.356843896491
1000.573361960011
1001.360192763785
1001.360192913783
1001.360193019402
1001.360193113958
1001.360193160868
1001.360193106072
1001.360192866408
1001.360192327387
1001.360191351957
1001.36018980447
1001.360187586706
1001.360184683964
1001.360178437326
1001.360159908365
1001.360113960478
1001.36002378605
1001.359875203319
1001.359640357444
1001.359295337445
1001.358809404722
1001.358083698839
1001.35665655838
1001.28000976917
1001.360190987259
1001.36019071216
1001.360190175697
1001.360189344048
1001.36018812154
1001.360186359892
1001.360183809744
1001.360180131394
1001.360174926788
1001.360167805907
1001.360158469373
1001.360146798285
1001.360127078168
1001.360083645299
1001.35999651236
1001.35985306189
1001.35965263281
1001.359369200357
1001.358979282685
1001.358466742817
1001.357758731329
1001.356454763479
1001.351733488375
1001.360175229602
1001.360173837163
1001.360171581776
1001.360168312295
1001.360163796323
1001.360157655823
1001.360149222682
1001.360137595291
1001.360121724856
1001.360100557347
1001.36007315865
1001.360038771064
1001.359984508296
1001.359882148101
1001.35970747976
1001.359465046939
1001.35919156436
1001.358878259656
1001.358479630331
1001.357988537879
1001.357349456178
1001.356218848132
1001.35201720725
1001.360129836177
1001.360125949973
1001.360119897827
1001.360111259681
1001.36009956037
1001.360083944343
1001.360062821573
1001.360034074292
1001.359995262685
1001.359943868419
1001.359877379751
1001.359792988155
1001.359662417564
1001.359434357181
1001.359081990041
1001.358646072373
1001.358239573447
1001.357936482898
1001.357608155645
1001.357238978769
1001.35677023579
1001.355901982641
1001.352334198862
0.9705386388521251
0.9705382189844836
0.9705378319116443
0.9705375158117118
0.9705373245826066
0.9705372090433746
0.9705371260558829
0.9705370508462151
0.9705369792578529
0.9705369012914751
0.9705368238763253
0.9705367460147876
0.9705366710162985
0.9705366093088
0.9705365642952833
0.9705365394373782
0.970536538227203
0.9705365424402085
0.970536473124832
0.970538185347988
0.970537713163189
0.9705373256341684
0.970537021650153
0.9705368579393793
0.9705367558709695
0.9705366922511761
0.9705366358874123
0.9705365773672318
0.9705365069628012
0.9705364351100748
0.970536352492034
0.97053627731484
0.9705362139627773
0.9705361672007964
0.9705361420074566
0.9705361417331875
0.9705361423379651
0.9705360317379328
0.9705377186959121
0.9705371492980128
0.9705367449350016
0.9705365067520972
0.9705365228372843
0.9705362821701511
0.9705361895671789
0.9705361573775159
0.9705361251531066
0.9705360738967316
0.9705360126569644
0.9705359353945814
0.9705358634539279
0.9705358010331958
0.9705357544892943
0.9705357299916001
0.9705357301310015
0.9705357267260453
0.9705356039874427
0.9705371971649317
0.9705366083621686
0.9705364555643308
0.9705372695029778
0.9705388480281427
0.9705365674091256
0.9705357457110019
0.9705356569170716
0.9705356526751934
0.9705356275274292
0.9705355801402115
0.970535513823092
0.9705354470179361
0.9705353865935986
0.9705353408182266
0.9705353161818689
0.9705353157350026
0.9705353078090418
0.9705351778148924
0.9705408292554348
0.9705364796697992
0.9705399799551349
0.9705519463328208
0.9705637466577153
0.9705436785722944
0.970536185314261
0.9705352059440678
0.970535167782927
0.970535169070364
0.9705351386643457
0.9705350862760983
0.9705350252795836
0.9705349677590537
0.9705349230423146
0.9705348981129929
0.970534896538174
0.9705348841462487
0.9705347455369421
0.9704042274640263
0.9705341241524216
0.9705756066455383
0.9706746240173937
0.9707285205510874
0.9705951061192598
0.9705434160992612
0.9705353784379824
0.9705347244160886
0.9705347002127792
0.9705346896797644
0.9705346576257944
0.9705346075076231
0.9705345547761408
0.9705345112391535
0.9705344863499064
0.9705344839441298
0.9705344670770271
0.9705343153576322
0.9728790210543822
0.971164251991918
0.9708104866740684
0.9714537312023996
0.9715415078755458
0.9708669744851741
0.9705909221171323
0.9705402710064861
0.9705347999987953
0.9705342484546293
0.9705342127157712
0.9705341981990845
0.9705341676468153
0.970534127615058
0.970534090543746
0.9705340690755048
0.9705340679455914
0.9705340471702766
0.9705339008629854
0.9475717770073986
0.9567226938912647
0.9725138956280203
0.9754833599388362
0.9746506882798214
0.9719922561625074
0.9708288040287869
0.9705740740999713
0.9705387888029391
0.9705342047596484
0.9705337545155225
0.9705336985364542
0.9705336601025448
0.9705336282793449
0.9705336008846255
0.9705335850961643
0.9705335841968433
0.9705335651477809
0.9705334302843515
1001.360026507453
1001.360017672672
1001.360004390685
1001.359985414124
1001.359960004212
1001.35992642181
1001.359881261659
1001.359820082391
1001.359737860776
1001.359629321704
1001.359488792628
1001.359308750762
1001.359032432523
1001.358567965462
1001.357889364082
1001.357087429334
1001.356359997313
1001.356007093836
1001.355644723571
1001.355311171411
1001.355033367928
1001.354682705244
1001.352813941252
1001.35965560176
1001.359631035634
1001.359594141932
1001.35954178055
1001.359472542183
1001.359381841709
1001.359260340175
1001.359096311919
1001.358877173898
1001.358589954769
1001.358220636912
1001.357748608047
1001.357040828999
1001.355883451018
1001.354301520319
1001.352541656661
1001.350981722912
1001.349997913308
1001.349991405629
1001.350335902843
1001.350437465579
1001.350766979165
1001.350705594035
1001.358806205721
1001.358752039487
1001.358668826558
1001.358551366071
1001.358397912739
1001.358198027375
1001.357930505304
1001.357570103959
1001.357092228274
1001.356473579242
1001.355692204106
1001.354713532257
1001.353314547123
1001.350951382181
1001.347884703845
1001.344751253731
1001.342196852934
1001.340375325907
1001.340077354804
1001.340869387688
1001.342374128822
1001.343618367523
1001.345372978872
1001.357160556405
1001.357061323285
1001.356902044539
1001.356678884455
1001.356390593417
1001.356015826525
1001.355513649489
1001.354838529016
1001.353953695418
1001.352833259864
1001.351463881805
1001.349823776031
1001.347680369784
1001.343342629314
1001.33747962269
1001.331954427794
1001.202749625953
991.604717103179
983.7505589511985
998.5293604684354
1001.329472368254
1001.332542628933
1001.335912039947
1001.354388374524
1001.354233536203
1001.353966695577
1001.353597723452
1001.353125476671
1001.352509916331
1001.351681225817
1001.350569878183
1001.349145181604
1001.347413820923
1001.345390427193
1001.343187258342
1001.340736636891
989.297102512057
911.6550832395747
760.335927586383
586.6332669821354
431.229146587358
340.0453572240953
365.0328369129469
453.8171603290116
601.753143141052
796.9153763108244
1001.350254890414
1001.350044847232
1001.349646304622
1001.349103007087
1001.348414549703
1001.347508619129
1001.346262632529
1001.344606043203
1001.342611699242
1001.340341024018
997.7627508558938
931.0855656233513
749.6390312796705
446.9260282898547
181.3029972285911
2.934783405587681
1.221414095437451
1.205854727969999
1.193938463177062
1.185797806600978
2.773506846259602
16.98565578091757
75.24079951187107
1001.344730853117
1001.344473493133
1001.343956108533
1001.343228931164
1001.34232806207
1001.341089142495
1001.339214740293
986.0048215040212
918.5220113534317
771.8516331707733
499.8505921223196
223.2262160977981
7.455711269550345
1.224881758383656
1.154787228290229
1.52758831343509
1.394533206014836
1.215440682198738
1.112026265368902
1.095098696641166
1.095797785867921
1.111042134499914
1.13418484553872
967.1014405184675
959.9815220066089
941.6205310653133
906.7347157214977
847.177367242102
752.9382309860738
595.1754818404205
386.6470599764302
192.16636478171
33.91502609580841
1.229037672381992
1.208528480680197
1.197588260428148
2.571484922082949
6.333166965306668
6.828335493150721
2.999461616655442
1.071776510725986
1.045033340791262
1.027766308052808
1.019887990188199
1.028517866125767
1.052278226921024
287.9090553981779
267.3446269836272
224.9544922553401
166.9342166190374
100.9752227580346
35.66588208444527
1.229649808156191
1.213255278028297
1.188511314702262
1.163459112012586
1.142645169913961
1.128041437578633
1.125315389188245
3.627495929479407
6.84319907418934
6.394462693727399
1.988044311324106
1.017098417705997
0.9975524166676254
0.9957597058338062
1.004523318227445
1.017157135538335
1.034227484299543
1.196365257648455
1.194453680993208
1.186874681767675
1.180468815063724
1.167997779024545
1.150980715503275
1.131792849161154
1.111122743521646
1.09183869981056
1.076426909852773
1.067498702264223
1.063944235183218
1.066944267573716
1.106677778412838
2.219011510902692
1.085515328525016
1.00849303795088
0.9847153501375402
0.9847869283540581
0.9947722554562074
1.010983112492647
1.030606717431018
1.051439057948758
1.110670722511878
1.105494686024078
1.100656515348068
1.091786808367023
1.080116344563241
1.066159585739721
1.051439432930216
1.038016483490873
1.027570156448812
1.021312034336599
1.020282007210565
1.022679176180811
1.031507422609869
1.064271884191311
1.082004886014742
1.029869046772416
0.9864482849846843
0.9786717437553161
0.9840257591826821
0.9957433772216839
1.011499430563846
1.028176143431367
1.044519123688668
1.043919729165235
1.040106265788899
1.035360388148371
1.029418397026276
1.021341324578069
1.012101759041204
1.003462794909858
0.9967628736847188
0.9931821283762888
0.9932858983582766
0.9972114709648006
1.002608939594221
1.027001847765437
1.082520251877182
1.075897408348726
1.012439515539458
0.9796531640153286
0.9768293057798277
0.9826190718439345
0.9921603866024619
1.002830066434502
1.011531925683129
1.018100601117313
1.002923579913723
0.9997620376548948
0.9967519553275883
0.9932778221733454
0.9887504747982436
0.9840491379865711
0.9803506689225659
0.9786995812044331
0.9800020350082603
0.9923156803607414
0.9966191372553254
0.9994095063916243
1.179771606658318
1.283682718468462
1.094721901806003
0.9924249738513858
0.9745018014536349
0.9752494414757851
0.9796874681987973
0.9855440204707842
0.991002808680042
0.9948290679969172
0.9991237733734765
0.981034783186154
0.9794479293301765
0.9780968620738534
0.9765045924446463
0.9746105422035638
0.9730249893215928
0.9725308612262871
0.9740544487557158
0.9823487602345728
1.082633903193551
1.085250248849255
1.034523066081206
1.266259571019485
1.277963313737122
1.033721002546982
0.9732287549408694
0.9723087012458813
0.9737307420375585
0.9762315383360526
0.9791770513863084
0.9817865407989068
0.984276681251757
0.9895279349354075
0.9721639088540815
0.9716516467621474
0.9712378630159701
0.9708073511395758
0.9704262488957249
0.9704634045336372
0.9715747930159158
0.9747908299080779
1.028009052434917
1.106052263631593
1.114701955264369
1.046255336753329
1.175262060824921
1.029816751244264
0.9716574698243861
0.9705725370457109
0.9716508728087629
0.9722816316268555
0.9734630815762675
0.9748029480543091
0.9761307481842502
0.9781228235654741
0.9831905698801598
0.9698660357275387
0.9698206320761449
0.9698125232838595
0.9698754473116132
0.9700727161817837
0.9706741134696045
0.9723802258106653
0.9773734087129738
1.036016298330346
1.059673373570891
1.016677820092904
1.010311772483854
1.012770635513006
0.9854342889274811
0.9702486977874312
0.9703924126332352
0.971132666444085
0.9712928982315532
0.9717843121194307
0.9723231201262774
0.9729280889310975
0.974081767476682
0.9773089198032443
0.9699106466222224
0.9699927922869942
0.9700769729255535
0.9702063681436148
0.9704693985411571
0.9711424869518395
0.9730511144637555
0.9788773996531369
0.982766349911117
0.9890333029445942
0.9934160022774113
0.9932628346579384
0.985370441808734
0.9748230582556939
0.9697276390211049
0.9703826882615499
0.9708043740433959
0.9707703287569643
0.9709588453028443
0.97114400755424
0.9713609542298379
0.9717879069795988
0.9730088008562481
0.9703444877829812
0.9703949667045738
0.9704350144605645
0.9704990584561012
0.9706657764874871
0.9712103995839041
0.9728065373551525
0.9756777743854127
0.9793145773495769
0.9822576859802374
0.982537280580824
0.9797579783617701
0.9752539387544595
0.9713925399233357
0.969953704300586
0.970397527965655
0.9706321090967209
0.9705464387642424
0.9706206347752213
0.9706727857621337
0.9707344740119743
0.9708479102601872
0.9711770047491693
0.9705383479082293
0.9705387132830328
0.9705371149227195
0.9705444461312751
0.9706169023625342
0.970938003826246
0.97180121570531
0.973409272994967
0.9755990929123437
0.9775580384559857
0.9770069907013398
0.9745605601798338
0.9722094913406318
0.970513898371492
0.9701007830498689
0.9704386856982458
0.970548813137696
0.9704690951733409
0.9705041800002921
0.9705138683853516
0.9705279345604871
0.9705503178123541
0.9706173436782138
0.9705178141454204
0.9705070225118297
0.9704976922009521
0.9704901266038907
0.9705099546356366
0.9706281892539044
0.9709778702706537
0.9716766944125664
0.9731796855104931
0.9745336503658677
0.9743690589679799
0.9722161096823172
0.9709729858733294
0.9702485362245012
0.9702350785534898
0.9704725941032438
0.9705076484534841
0.9704485283375134
0.9704705472498489
0.9704687281366238
0.9704710717649382
0.9704737257264378
0.9704838471472602
0.9704638349900585
0.9704614779832839
0.9704597208812654
0.9704579319734481
0.9704579075445955
0.9704711207460978
0.9705360628930378
0.9707158667367766
0.9712143974670181
0.9721114056443916
0.9717266307327579
0.9709931963003413
0.9704824095802036
0.9702353328478347
0.9703377909293658
0.9704908420643796
0.9704852236281148
0.9704455814635368
0.9704628287152036
0.970458250856685
0.9704584651100483
0.9704579537367826
0.9704587116805342
0.9704572985867389
0.970459119921088
0.970460600751491
0.9704619081144993
0.9704597409112921
0.9704489871536796
0.9704286774090664
0.9704119362429847
0.9704233825348183
0.9704674483956223
0.9704954624792982
0.9704465702263517
0.9703474458580651
0.9703195652380372
0.9704103859433338
0.9704902317831617
0.9704722117051913
0.9704475306291133
0.9704616487198722
0.9704566776234378
0.9704568784164086
0.9704561877739387
0.9704559759373044
0.9704702571341407
0.9704703910860438
0.970470325710867
0.9704701612412943
0.9704690618904941
0.9704647442111137
0.9704530764473356
0.9704301554183923
0.970398053121039
0.9703676305751511
0.9703513089812018
0.9703542997113034
0.9703704532953571
0.9704030734964275
0.9704525169356069
0.9704790102591855
0.970463975532756
0.970451560561172
0.9704611522884924
0.9704570997700708
0.9704574715072932
0.9704570301994495
0.97045698330219
0.9704700747875944
0.9704693583381656
0.9704686664444598
0.9704678320213641
0.9704669639440172
0.9704658350030607
0.9704634079588411
0.9704577302039094
0.9704470141238012
0.9704322718022
0.9704192197162028
0.9704159726439735
0.9704265777357771
0.9704462784688527
0.9704644708717403
0.9704685110582179
0.9704596615316161
0.9704556753637993
0.9704603189403184
0.9704579190493691
0.9704582594861347
0.9704581014170954
0.97045827228385
0.9704651096989816
0.9704650733175844
0.970464935191157
0.9704648583805258
0.9704648292232303
0.9704648568653229
0.9704649110664364
0.9704646802650279
0.9704635252364212
0.9704609502765532
0.97045749575012
0.9704551130236777
0.9704559104594975
0.9704596887045001
0.9704629798161396
0.9704622137153729
0.9704588656496266
0.9704581249160836
0.9704596391784284
0.9704586625125102
0.9704589005919684
0.9704589848326732
0.970459316948091
0.9704664445514
0.9704662464581989
0.9704659761867142
0.9704657001450891
0.9704654251966294
0.9704650841765634
0.9704646229448965
0.9704640932635593
0.9704635870227115
0.970463084862409
0.9704624674105857
0.9704617364723093
0.9704611285367017
0.9704608318231098
0.9704605936862785
0.9704599632072698
0.9704591696755303
0.9704590496225405
0.9704593776540632
0.9704591693721067
0.97045938202851
0.9704596377828087
0.9704600759702343
0.9704651216783404
0.9704649721807874
0.9704647440346825
0.9704644950260185
0.970464242164279
0.9704639743102351
0.9704636568022258
0.9704632484325206
0.9704627392300329
0.9704621691213694
0.9704615971471804
0.9704610602032169
0.9704605747499329
0.9704601572950593
0.9704598125874032
0.9704595259788164
0.9704593233631745
0.9704592846998199
0.97045937290189
0.9704594653305669
0.9704597265820325
0.9704600903539077
0.9704605925356046
0.9704644560887969
0.9704643321347269
0.9704641327663546
0.9704639088885724
0.9704636801334507
0.9704634367396228
0.9704631477211956
0.9704627834033874
0.9704623350947983
0.9704618204851633
0.9704612777803688
0.9704607529775481
0.970460285651888
0.9704599009787386
0.9704596100504143
0.9704594145391663
0.9704593147634674
0.9704593159041772
0.9704594205865751
0.9704596264554608
0.9704599520848632
0.9704603830979778
0.9704609199708051
0.9704636848599315
0.9704635870304331
0.9704634190871656
0.9704632198820884
0.9704630090571896
0.9704627887023414
0.970462541719991
0.9704622430848897
0.9704618772269508
0.9704614490578628
0.9704609838762328
0.9704605190502232
0.9704600934636878
0.9704597390243039
0.9704594761565404
0.9704593136569185
0.9704592526337444
0.970459293407735
0.9704594416137605
0.9704597036505133
0.9704600786216573
0.9704605507249287
0.9704611028753266
0.9704629210250874
0.9704628478471556
0.9704627120207233
0.9704625427961437
0.9704623578507664
0.9704621643963068
0.9704619538143402
0.9704617072887159
0.9704614088828398
0.9704610564654933
0.9704606652882827
0.97046026428433
0.970459888419154
0.9704595707606163
0.970459336628291
0.9704592007723992
0.970459168369555
0.9704592403524052
0.9704594210023246
0.9704597158637636
0.9704601211215299
0.9704606165961909
0.9704611737801037
0.9704621513201932
0.9704620998998373
0.9704619938732768
0.9704618548908596
0.9704616977850946
0.9704615327182931
0.9704613575751657
0.9704611593149868
0.9704609230665169
0.9704606421009431
0.970460323533972
0.9704599881822837
0.9704596658067026
0.9704593884390942
0.9704591840158329
0.9704590718875776
0.9704590615239965
0.9704591558571305
0.9704593580001338
0.9704596712018961
0.9704600909758945
0.9704605962831258
0.970461151540593
0.9704613744078044
0.9704613407090896
0.9704612605441125
0.9704611496835011
0.9704610203107682
0.9704608837895491
0.9704607424402121
0.9704605881812929
0.9704604082601627
0.9704601935430562
0.9704599449464657
0.9704596757369303
0.9704594094327968
0.970459174945253
0.9704590007181548
0.9704589095670541
0.9704589156790003
0.9704590252388186
0.9704592408372249
0.9704595631144944
0.9704599872828322
0.9704604930917081
0.9704610431400273
0.9704605882730527
0.9704605680498355
0.9704605084749413
0.9704604215811597
0.970460317384953
0.9704602074900389
0.9704600970922496
0.9704599820272978
0.970459851931914
0.9704596966789637
0.9704595127428317
0.9704593070036155
0.9704590968560799
0.9704589070841708
0.9704587649270388
0.9704586950848383
0.9704587158373474
0.9704588371235495
0.9704590616758304
0.9704593877546357
0.9704598103275207
0.9704603107468041
0.970460853313367
0.9704597913736387
0.970459780073099
0.9704597354227712
0.9704596671168682
0.9704595837978488
0.9704594969127166
0.9704594134387834
0.9704593321553613
0.9704592449459782
0.9704591415062936
0.970459015135862
0.9704588674436091
0.9704587102606028
0.9704585642670849
0.97045845502327
0.970458407890146
0.9704584434016508
0.9704585741526848
0.9704588045158978
0.9704591324735101
0.9704595518592615
0.9704600451275475
0.9704605798819059
0.9704589818880239
0.9704589753795813
0.9704589400780426
0.9704588846966159
0.9704588171659808
0.9704587487291486
0.9704586874185559
0.9704586341953958
0.9704585829386314
0.9704585236902474
0.9704584476535858
0.9704583522938295
0.9704582445323503
0.9704581408927447
0.9704580645909539
0.9704580407716208
0.9704580914323309
0.9704582314737376
0.9704584671758012
0.9704587968604299
0.970459213260626
0.9704596996947189
0.970460227375166
0.9704581582619005
0.9704581527830219
0.9704581220041431
0.9704580743064271
0.9704580175603607
0.9704579628523904
0.9704579188755688
0.9704578881568441
0.9704578662573831
0.970457843776164
0.9704578106050131
0.9704577610182188
0.9704576977585597
0.9704576334084711
0.9704575885786457
0.9704575876026081
0.9704576532870491
0.9704578023947529
0.9704580432286802
0.9704583751496344
0.9704587906557525
0.9704592731417615
0.9704597961703654
0.9704573185683881
0.9704573111859353
0.970457281162545
0.9704572370303972
0.9704571869514431
0.9704571419449417
0.9704571111069838
0.9704570980924322
0.9704570997622133
0.9704571073356072
0.9704571099090153
0.9704570994223255
0.970457075264857
0.9704570466380071
0.9704570316594651
0.9704570535152334
0.9704571351459023
0.9704572944320822
0.9704575413761409
0.9704578766489783
0.9704582927697351
0.9704587737204616
0.9704592943101922
0.9704564609870724
0.9704564495418919
0.9704564178890737
0.9704563746595269
0.9704563284760498
0.9704562903768053
0.9704562696641245
0.9704562707376247
0.9704562913988799
0.9704563233855318
0.9704563553070799
0.9704563774320483
0.9704563865920417
0.9704563892516173
0.9704564013671743
0.9704564448980473
0.9704565424955628
0.9704567126136568
0.9704569664703021
0.9704573059954724
0.9704577244598155
0.9704582063126499
0.9704587266864303
0.9704555830532103
0.9704555667422634
0.970455532722081
0.9704554896299215
0.9704554464259872
0.970455414113682
0.9704554020541418
0.9704554150214743
0.9704554514197153
0.9704555032923137
0.9704555589045035
0.9704556073970423
0.9704556438516211
0.9704556729138881
0.9704557090728677
0.9704557733782426
0.9704558880023747
0.9704560711216408
0.9704563339281161
0.9704566788063276
0.9704570999232578
0.9704575826718264
0.9704581026665773
0.9704546820483907
0.9704546620473021
0.970454627123373
0.970454585533407
0.9704545464993216
0.9704545207120547
0.9704545173328685
0.970454541217174
0.9704545909610933
0.970454658733272
0.9704547325702789
0.9704548009620175
0.9704548581363573
0.9704549079197879
0.9704549642861703
0.9704550479046751
0.9704551804396955
0.9704553791587095
0.9704556540163597
0.9704560065168625
0.9704564308479008
0.9704569131730871
0.9704574305490477
0.9704537587886976
0.9704537371021918
0.9704537052898308
0.9704536698122579
0.9704536391423155
0.9704536229380498
0.970453629401946
0.9704536628763005
0.9704537219586467
0.9704537992494431
0.9704538835099635
0.9704539640105466
0.9704540356840613
0.9704541027723514
0.9704541791693992
0.9704542848262596
0.9704544398362953
0.970454659003703
0.9704549492505257
0.9704553093714451
0.9704557325294189
0.9704562068130851
0.9704567144403501
0.9704528240836081
0.9704528051431679
0.9704527852236082
0.9704527660125912
0.970452753435433
0.9704527535578831
0.9704527712341826
0.9704528087315701
0.9704528648248948
0.9704529351156812
0.9704530139103433
0.9704530970854444
0.9704531848582811
0.970453283094227
0.9704534022493991
0.9704535542972134
0.9704537491923108
0.9704539926579593
0.9704542864302166
0.9704546293838536
0.9704550198718171
0.9704554560940977
0.9704559341174709
1001.352270125496
1001.351599260728
1001.350653453703
1001.349081535368
1001.350912767016
1001.35057791729
1001.346309248077
1001.34925591659
1001.346319010861
1001.34665245905
1001.346116845667
1001.345964599525
1001.337302630377
1001.338497549481
1001.339495617324
1001.340112428847
956.1128830609612
1001.330605961927
1001.332013043204
1001.333318324122
153.6300328364801
241.7028974713324
337.2803723467927
427.2927989146131
1.146951011032377
1.156470144646959
1.170494780451556
1.22081664583928
1.065412808289732
1.079175867457183
1.095818545986381
1.114167104974197
1.042482840899677
1.051603678435517
1.062923688039918
1.074356765315598
1.059626018651651
1.06660746800555
1.073749595669219
1.079790859540545
1.051431759105365
1.058796850646879
1.067881278377865
1.07740557542607
1.023387449850641
1.030925065165207
1.041208608946506
1.05501364278684
1.008227927907242
1.020337865591308
1.039603642475023
1.090797865832635
1.002863809153909
1.017627785342323
1.073785602218448
1.190687404647344
0.9949504108148103
1.007389169001596
1.025206519638397
1.175010043241759
0.9850445906615196
0.9935925776187785
1.005926528276216
1.022647887560092
0.9760237434290536
0.9794858305897955
0.9847554066649411
0.9925542711905887
0.9720273212547035
0.9730309203810834
0.9745852007163576
0.9768949369407814
0.970802182992762
0.9710296952632628
0.9713945882818594
0.9719565382728453
0.9705157598832485
0.9705573508951503
0.9706268625654246
0.9707387821806263
0.9704629922104163
0.9704692519093293
0.9704802352976794
0.970498722301711
0.9704563011480694
0.9704571142035585
0.9704586508224078
0.970461327874491
0.9704569741797324
0.9704571473240244
0.9704574599826888
0.9704579557126939
0.9704583562890319
0.9704585141932703
0.9704587284842395
0.9704590035930781
0.9704595104815725
0.9704597079916859
0.9704599407024614
0.970460211462389
0.9704603444511144
0.9704605777081668
0.9704608343866655
0.9704611164671064
0.9704608987362847
0.9704611581320794
0.9704614345057659
0.9704617240968365
0.9704612348938628
0.9704615093293009
0.9704617981647241
0.9704620933494983
0.970461407106313
0.9704616852615524
0.9704619789270711
0.9704622772672614
0.9704614624897452
0.9704617345621442
0.9704620226774919
0.9704623181490919
0.9704614256878603
0.9704616841773238
0.9704619576668166
0.9704622409093102
0.9704613095769514
0.9704615524472142
0.9704618079255479
0.9704620759149186
0.9704611182063048
0.9704613457217425
0.9704615820673481
0.9704618311930057
0.9704608474775966
0.9704610633550045
0.9704612839897278
0.9704615152332181
0.9704605000943664
0.970460707589995
0.970460915809202
0.9704611317734836
0.9704600744794459
0.9704602779573023
0.9704604791895325
0.9704606844507907
0.9704595777551446
0.9704597796449413
0.9704599770746954
0.9704601756204119
0.9704590142180926
0.9704592168651678
0.9704594137998793
0.9704596093501628
0.9704583923061103
0.9704585963747973
0.970458794066946
0.970458989019974
0.9704577193801841
0.9704579249738
0.9704581238952396
0.9704583192992435
0.9704569987497341
0.9704572055646585
0.9704574056637526
0.9704576022630493
0.9704562123056655
0.970456425467638
0.9704566328770176
0.970456837309583
315.7616040550376
1.222302606131999
0.972246818923385
0.9946791846285516
0.9850120883418219
0.9759593879299644
0.9718470596956402
0.970764952835952
0.9705669233402193
0.9705366918921583
0.9705331965054307
0.9705328822543025
0.9705328479856254
0.9705328305073841
0.9705328098875439
0.9705327930401358
0.9705327832199591
0.9705327653350457
0.970532648854737
989.4991630868544
557.0160914372045
10.72584839293558
1.161392272549598
1.035401576594778
0.996383022448707
0.9782445666822895
0.9722921378217314
0.970841279125534
0.9705737045375371
0.970536168015136
0.9705321452172255
0.9705318064734479
0.9705317427398203
0.9705316938533747
0.9705316527442847
0.9705316218903418
0.9705315924530656
0.9705314699660287
1001.342784082923
1001.327681850014
742.2232140889519
101.6739234792797
1.216073270357339
1.078573880382433
1.005365471096641
0.9798105893990063
0.9724756673188427
0.9708463725684858
0.9705701669116364
0.9705346650984522
0.9705310688684419
0.9705306948772625
0.9705305963708301
0.9705305287229226
0.970530477366207
0.9705304358353251
0.9705303035516706
1001.264962282107
1001.316920291509
1001.324333693054
833.073909506022
175.3674352888195
1.192998686771272
1.071150478841416
1.004097687717
0.9790510014608123
0.97219419630476
0.9707800423009075
0.9705604649981677
0.9705327935916533
0.9705298286820808
0.9705294760441554
0.9705293638174348
0.9705292893019454
0.9705292338738588
0.9705290950187714
1001.334779641268
1001.332930494469
1001.327610034787
1001.320181446026
775.2616205375273
93.66527047671737
1.146601542884674
1.050366889225302
0.9960223614179652
0.9766268865726281
0.9716590889116592
0.9706978177114073
0.9705489269868617
0.9705303661138542
0.9705284061137623
0.9705281364340712
0.9705280283532564
0.9705279569695553
0.9705278133429434
840.8285707444046
1001.330587176112
1001.327734214986
1001.321800519063
1001.31325447305