/*--------------------------------*- C++ -*----------------------------------*\
| =========                 |                                                 |
| \\      /  F ield         | OpenFOAM: The Open Source CFD Toolbox           |
|  \\    /   O peration     | Version:  2206                                  |
|   \\  /    A nd           | Website:  www.openfoam.com                      |
|    \\/     M anipulation  |                                                 |
\*---------------------------------------------------------------------------*/
FoamFile
{
    version     2.0;
    format      ascii;
    arch        "LSB;label=32;scalar=64";
    class       volScalarField;
    location    "0.25";
    object      T.air;
}
// * * * * * * * * * * * * * * * * * * * * * * * * * * * * * * * * * * * * * //

dimensions      [0 0 0 1 0 0 0];

internalField   nonuniform List<scalar> 
2268
(
272.9999756145554
272.9999748517336
272.9999743226603
272.9999736443434
272.9999728179334
272.9999718844439
272.9999708657005
272.9999697794871
272.9999686543464
272.999967536453
272.9999664947969
272.9999656283193
272.9999657871962
272.999970754563
272.9999908287713
273.0000471381962
273.0001770867564
273.0004550689711
273.0010254367192
273.0022005475866
273.0047873101481
273.0114944732376
273.0367723465988
272.9999506865756
272.9999496911377
272.9999488718801
272.999947778691
272.999946431081
272.999944880423
272.9999431550817
272.9999412852297
272.9999393197369
272.9999373337273
272.9999354351016
272.9999337739712
272.9999339518506
272.9999428854415
272.9999780022353
273.0000711983322
273.0002703023124
273.00066274669
273.0013930662393
273.0027483622965
273.0054624772577
273.0120858221213
273.0366913052866
272.9999251465551
272.9999240050918
272.9999229352521
272.9999215151762
272.9999197821289
272.9999177961835
272.9999156024836
272.9999132596312
272.9999108538011
272.9999085012533
272.9999063469809
272.999904564037
272.9999061112323
272.9999232834527
272.9999844514908
273.0001360822793
273.0004386361155
273.000992139932
273.0019313861996
273.0034987688671
273.006328328196
273.0127713503484
273.0364209956825
272.9999010616844
272.9998999508654
272.9998988431449
272.9998974232367
272.9998957571338
272.9998939373281
272.9998920736481
272.9998903180515
272.9998888659898
272.9998879341803
272.9998877203594
272.9998883503854
272.9998953108199
272.9999297683744
273.000034900784
273.000271762601
273.0007078238538
273.0014532535834
273.0026249726982
273.0044098537516
273.0073271838062
273.0134994588835
273.0359327916419
272.9998848643214
272.9998842545079
272.9998838251123
272.9998834406977
272.9998832499884
272.9998834727629
272.9998844471165
272.9998866385061
272.999890604118
272.9998968954247
272.9999059117376
272.9999177128264
272.9999431085014
273.0000184378613
273.0002052385901
273.0005718416927
273.0011759024309
273.0021306630208
273.0035333304258
273.0055088665808
273.0084591731287
273.0142610571893
273.0352184173005
272.9998920867974
272.9998932052159
272.9998953862059
272.9998987672747
272.999903737377
272.9999108993553
272.9999212669762
272.9999362212984
272.9999573806057
272.9999863305222
273.0000242881624
273.0000717369152
273.0001519089213
273.0003284848603
273.0006827227757
273.0012659182802
273.002080758072
273.0032330437139
273.0048182369151
273.0069019369498
273.0097802995186
273.0150814262268
273.0342746924734
272.9999561495256
272.9999618104813
272.9999709797515
272.9999842718169
273.0000026314848
273.0000275956662
273.0000618805655
273.0001091516663
273.0001736728328
273.0002597292125
273.0003711184139
273.0005109208478
273.0007315255257
273.0011476693712
273.0018577799106
273.0028433835848
273.0039552164416
273.0052289412391
273.0068495439629
273.0088460419431
273.0114441656904
273.0160405053253
273.0331213209664
273.0001406963237
273.0001564956669
273.0001811006379
273.0002162189683
273.0002637824452
273.0003272693003
273.0004131437631
273.00053001559
273.0006878037985
273.0008967465872
273.0011670553408
273.0015101479456
273.0020409798726
273.0029681527768
273.0044006873094
273.0061728867148
273.0078254793235
273.0090576683175
273.0103924511868
273.0118932996933
273.0137989165291
273.017328672215
273.0318326859626
346.7727164401465
346.7726165272969
346.7725517201332
346.7724801793142
346.7724282543701
346.772403736367
346.7723960014808
346.7723945116029
346.7723905836213
346.7723807405455
346.7723587001161
346.7723277901562
346.772291396702
346.7722503437306
346.7722075901362
346.77216546129
346.7721255493076
346.7720964644776
346.7721077252141
346.772698184108
346.7725989245187
346.7725216003557
346.7724379188896
346.7723760426974
346.7723496632408
346.7723383199826
346.7723328599149
346.7723264748464
346.7723149903221
346.7722912296363
346.7722618031054
346.7722249557622
346.7721838439911
346.7721410686297
346.7720984956294
346.7720578033782
346.7720297094912
346.7720556150724
346.7727054970878
346.7726041633656
346.7725090487278
346.7723870181661
346.7722617012152
346.7722916464446
346.7722978024892
346.7722893534545
346.7722777718772
346.7722614319806
346.7722342663008
346.7722023518724
346.7721631888219
346.7721203414551
346.772076103982
346.7720320590958
346.7719902481512
346.77196292785
346.7719928626377
346.7727568082458
346.7726046321779
346.7723807597692
346.7718598401712
346.7711793980993
346.7719502591044
346.7722286144348
346.7722491273746
346.7722339468994
346.7722111498142
346.7721795069949
346.7721426787671
346.7720998246474
346.7720540674732
346.7720073869946
346.7719614694294
346.7719183434633
346.7718916000821
346.7719236354179
346.7713516780961
346.7724618714458
346.7708724070575
346.7663348232399
346.762011233894
346.7691568729012
346.7718361503884
346.7721869366875
346.7721925064623
346.7721638957505
346.7721266729351
346.7720833597929
346.7720358142698
346.7719859845576
346.7719359400097
346.7718874910718
346.7718426814756
346.7718161124066
346.7718505505518
346.8200919610741
346.7731179829169
346.7578662909418
346.7221908565882
346.7028545540851
346.7505164541549
346.7690096985119
346.771898113964
346.7721346733522
346.7721193784144
346.772075400442
346.7720226987024
346.7719678020229
346.7719123227877
346.7718580132092
346.7718061837458
346.7717590122822
346.7717322341256
346.7717704956079
345.9378454954995
346.5479322115409
346.6736479270156
346.4437515221236
346.4124053303588
346.6531313594054
346.751783932345
346.7699179888886
346.7718896643306
346.772067865191
346.7720331339044
346.7719713357567
346.7719050222814
346.7718400838105
346.7717787297367
346.7717215538639
346.771670682051
346.7716431014733
346.7716783817671
355.1766866280614
351.778795020858
346.0660540220853
345.0122755183896
345.3069518695584
346.2514890199897
346.6665492500578
346.757600349113
346.7702427350067
346.7718688677522
346.7719829379602
346.7719325739038
346.7718636159242
346.7717897806317
346.7717192990812
346.7716551830964
346.7716003886802
346.7715696035789
346.771599565225
273.0005607785437
273.0005966962639
273.0006506940539
273.0007278430679
273.0008311467822
273.0009676756222
273.0011512735897
273.0013999969291
273.0017342673714
273.0021755305508
273.0027468477197
273.0034788019852
273.0046021621754
273.0064904269287
273.0092492283111
273.0125094100353
273.0154666881329
273.0169013626883
273.0183745183182
273.0197305144115
273.0208598711452
273.0222854193971
273.0298824291066
273.0020686898074
273.0021685628205
273.0023185532657
273.0025314270985
273.0028129137068
273.0031816536347
273.0036756138215
273.0043424640202
273.0052333591694
273.0064010321185
273.0079024682675
273.009821461548
273.0126988614258
273.0174040177114
273.02383505349
273.0309893337505
273.0373307545526
273.0413300773547
273.041356530886
273.0399561043309
273.0376805149193
273.0354147744801
273.0362712505238
273.0055218769099
273.0057420867535
273.0060803841242
273.006557912527
273.0071817668643
273.007994386245
273.0090819754233
273.0105471535596
273.0124899053247
273.0150049433968
273.0181815033989
273.0221601110096
273.0278473618756
273.0374541004752
273.0499204587533
273.0626578956718
273.0730412355945
273.0804453829426
273.081656563725
273.0784371280495
273.072187696053
273.0645768937577
273.0580558243212
273.0122121258898
273.0126155466035
273.0132630750791
273.0141703038308
273.0153423114299
273.0168658701805
273.018907387735
273.0216519636104
273.0252490636041
273.0298039112626
273.0353707092469
273.0420379791524
273.0507510888932
273.0683838226439
273.0922156213018
273.1146731541854
273.1238196057176
273.1293194587341
273.1349647885597
273.1329131038304
273.1247612345398
273.1122823796433
273.0985872526594
273.0234819740202
273.024111435335
273.0251962154846
273.0266961838004
273.0286159833698
273.031118375639
273.0344871684942
273.0390049796396
273.0447965394677
273.0518346248625
273.0600597032945
273.0690153936283
273.0789767469605
273.1106102995624
273.1709142669274
273.2407452181701
273.2098665007832
273.1853963738146
273.1850780877558
273.1832761287179
273.1675332931698
273.1495156378783
273.1328022459379
273.040285449427
273.0411393020564
273.0427594246981
273.0449679838859
273.0477666169394
273.0514492692045
273.0565142173562
273.0632481810377
273.0713549679833
273.0805848347053
273.0912063599962
273.0995401230084
273.1070851839009
273.1656382583884
273.4853239235348
274.7298806377591
275.5174855514098
279.0699258649136
281.8545819639148
283.7892818433581
276.268742410324
273.5580781012649
273.2185026737093
273.0627408373588
273.0637869867265
273.0658901090747
273.0688460045428
273.0725079108844
273.077543897853
273.0851629038082
273.0942692929816
273.1030957645586
273.11387434943
273.128503137143
273.1347922897165
273.1817247107292
274.7438407589928
291.4211532169873
296.6859382626867
297.1024179055483
298.6594313372752
302.6147180834501
307.2918103868673
307.0946380553677
302.8795365279199
296.6979848917612
273.0894626271315
273.0907184203765
273.0927235327954
273.0963875490357
273.1009164536196
273.1087889231808
273.1231100305496
273.1333501708459
273.1460254324298
273.2079801510354
273.8069746238605
278.4533162818528
280.9975616662431
291.946550257807
293.9066204042034
298.2545888400208
303.7630902703974
313.9780737383773
322.0124697031428
327.4217812353147
329.949940730681
327.1800883144913
319.7909262958617
273.1196021674754
273.1221604177617
273.1254184500522
273.1350175869098
273.1537994016385
273.2084194425609
273.6350762594737
277.3686162634384
283.142873949397
289.239511835246
294.5080642103065
298.3206695050301
299.0431481029235
293.8677267069701
295.4390879973874
301.4865108065774
313.8986050363021
330.8560075086031
337.3387623045557
337.9449445226724
334.9955532664156
330.8333070854611
325.3712290615251
281.2845221806018
281.7346483442822
283.5335762517984
285.0720660121601
288.1157707288632
292.3754301649143
297.3321907321225
302.8632035005347
308.2120760971117
312.6247029539812
315.2393651322703
316.2922926491854
315.4021959042772
304.0771680532555
299.0150091230179
310.0034272343975
333.6789831204231
341.7712100971918
341.7148629340477
338.2794354655881
332.8541051883743
326.5149136065575
320.044078880458
302.9866405869608
304.4052247040806
305.7432140434626
308.2269813960564
311.5572151008693
315.6355924852179
320.0543568648292
324.1928719368597
327.4883391518098
329.4947225878108
329.8271492429062
329.0537861299351
326.2367342136541
316.1925852224311
311.0096300045704
326.809016421925
341.3413180897197
343.9471745168659
341.9740241219088
337.9487904357981
332.6833790709344
327.2859030853049
322.1633151933518
322.3598910319105
323.5417713164674
325.0247529711761
326.9007633763842
329.4858760720802
332.4936357866061
335.3559546250938
337.6098448244758
338.8266902851441
338.7908799237408
337.4567729253873
335.6396703158293
330.5079709411738
320.2220443567029
317.0715898898805
332.7152573982719
343.507090457638
344.4938788293871
342.4631309799184
339.168664086477
335.5587579784806
332.6704728932858
330.5219611434101
335.5364031343723
336.597443248149
337.6138700941946
338.794630526591
340.345795584996
341.9716497312972
343.2615666959844
343.840324075057
343.3829659343007
341.7895065095161
339.260640154068
336.713455880761
328.8014965136312
320.0663562042897
322.7268297486543
339.0813743365395
345.3171775746878
345.0516503464303
343.4875797306295
341.4452545688555
339.5630740997454
338.2552670714333
336.7988214545019
343.0224242700973
343.5781457860783
344.052676727861
344.6135853870061
345.2831683270226
345.8456318986058
346.0211103109521
345.4795085017064
343.8837914802089
341.2231723732762
337.9112828353624
334.5949198512331
325.3523961851244
320.6038598282265
331.9614630911468
345.7691803027197
346.0957787984079
345.5895750066159
344.7033285009666
343.6652374807331
342.7503468156341
341.8812765480273
340.0644283392346
346.1520369030802
346.3345017377439
346.4819904110039
346.635539966035
346.7715264033401
346.7580586352597
346.3611259581329
345.2180435755176
342.9794636490302
339.8326676572891
336.195788001434
332.2928757141102
324.8807927972013
327.7785469578866
346.328394482705
346.7151963027695
346.3298741236037
346.1044828063711
345.6835313713835
345.2072654805
344.7362548395073
344.0322642323094
342.2564716800378
346.9717655976094
346.9879791430874
346.9908177442978
346.9682043700203
346.8975017717877
346.682370725204
346.074664082166
344.68091831214
342.2636971780043
339.1987950094574
336.0219346145774
333.0785078074916
332.2695187994694
341.4865951467522
346.831085438728
346.7793756098577
346.5145392958993
346.4567247872223
346.28071197821
346.0878039781512
345.8713079987875
345.4599761435956
344.3170287398792
346.9554352561677
346.9260221996432
346.8958565662331
346.8494935095389
346.7553443772431
346.5148084273885
345.8697704593908
344.4987885923089
342.4166669724058
340.2451681721403
338.7436708329669
338.7955641573007
341.5088817490659
345.2037216424467
347.0173449228196
346.7827473527144
346.6316564579464
346.6432343683082
346.5752193036866
346.5082626661653
346.4297727753738
346.2761830841828
345.8399959052712
346.7999661296571
346.7818965290059
346.7675290584356
346.7445538385882
346.6848782788531
346.4911400025046
345.9671795718951
344.9521385086728
343.6231616670051
342.5960348223114
342.4956654550293
343.4656500080193
345.0514216274656
346.4227996566857
346.9364164995446
346.7774064165502
346.693185091377
346.7232880990545
346.6961847057016
346.6768375205098
346.6539296227907
346.6123740241762
346.4937534360326
346.730371962429
346.730213635267
346.7307327956961
346.7280304900506
346.7021254951447
346.5885457466742
346.2791184948959
345.7068014626572
345.0060979734695
344.5453433728487
344.6526306109928
345.2971730461051
346.1319369985914
346.7364169363198
346.8838053426181
346.7627132565671
346.723007059021
346.7510707163088
346.7380514642197
346.734027878047
346.7283458269265
346.7196121208826
346.6949407217199
346.7374026495526
346.7412322241442
346.7445187677091
346.7471490008621
346.7399751619562
346.6975742017568
346.5725216534249
346.3230382498153
345.9872936859874
345.7359206192126
345.7750277054759
346.1298145106726
346.5727142503862
346.8312470238844
346.8358063768027
346.7506480561464
346.7378216268753
346.7586094777714
346.7503691616286
346.7506053133645
346.7493111602328
346.7478928312507
346.7438834637279
346.7563950625309
346.7572130179844
346.7577984249608
346.7583700303581
346.7582835119864
346.7534347681794
346.730071694674
346.6656490552933
346.554493366676
346.4462693658527
346.4353644820845
346.5657060732166
346.7479306734248
346.8359915595486
346.7991233535145
346.7442001458331
346.7459641601328
346.7598713319629
346.7534380252982
346.7547918188285
346.7544288762268
346.7543549672914
346.753936061424
346.7584431174576
346.7577698637105
346.7572025356676
346.7566752127369
346.7573660604104
346.7610996081852
346.7682235619524
346.7740411541902
346.7697569822558
346.7538105733659
346.7435957367459
346.7614119093317
346.7970359859714
346.8060147261226
346.7732144824859
346.7444972227848
346.7507493564854
346.7593832285641
346.7541584386935
346.7557650880855
346.7555454223004
346.7556984435594
346.7557982892345
346.7535280882553
346.7534595776397
346.7534486852331
346.7534542045826
346.7537741970686
346.7552231313493
346.7592789065534
346.7673316082356
346.7786414031213
346.7893459837663
346.7951747057468
346.7951004454702
346.7894723267453
346.7763406020228
346.7581892551818
346.7485803907017
346.7538195314809
346.7581353177212
346.7546055627409
346.7559765695087
346.7558044212345
346.7559884644551
346.7561467652055
346.7533087172816
346.7535459669457
346.7537627536783
346.7540141981153
346.7542613871689
346.7545841605771
346.7553529931021
346.7572667018086
346.7609669105265
346.7660976088227
346.7706545064517
346.7718119155545
346.7680217961415
346.7606511039058
346.7539343866412
346.7523904408652
346.7554683923697
346.7568289101134
346.7551322674116
346.7559869998527
346.7559088643832
346.7560779850611
346.7562362218794
346.7547969483695
346.7547932069811
346.7548159099343
346.7548029599216
346.7547596172051
346.7546819207628
346.7545809278768
346.7545691736569
346.7548775170882
346.7556867155971
346.7568081594707
346.7575493209496
346.7571612149059
346.7557187850406
346.754465784269
346.7546766887788
346.7558321950612
346.7560812803221
346.7555561656984
346.7559606265409
346.7559808416847
346.7561238368671
346.7562740777175
346.7540316897073
346.7540877971036
346.7541614858018
346.7542258562806
346.7542790909407
346.7543449726309
346.7544434065388
346.7545571902887
346.7546557124604
346.7547490118037
346.7548835587681
346.7550628718388
346.75520656204
346.7552511851549
346.7552905745756
346.7554894310971
346.7557697770613
346.7558375046694
346.7557792747874
346.755954108919
346.7560285897952
346.7561515611524
346.7562939915217
346.7542126509746
346.7542534812322
346.7543158463558
346.7543765022746
346.7544301644669
346.7544809400666
346.7545419871608
346.7546293823348
346.7547487563486
346.754888613404
346.7550312049493
346.7551670479193
346.7552940537555
346.7554100299876
346.7555169051765
346.7556236231818
346.7557249574698
346.7557970112805
346.7558586749233
346.7559601434841
346.756049616059
346.7561612109747
346.7562974061622
346.7541545075472
346.7541882626452
346.7542439740822
346.754301344379
346.7543542378021
346.754406508758
346.7544701388791
346.75455711347
346.7546724850682
346.7548124371796
346.7549662973871
346.7551209374343
346.7552656825873
346.7553950353005
346.7555085434784
346.7556092307651
346.7557008651875
346.7557859465182
346.7558685408708
346.7559549010489
346.7560439775039
346.7561486650115
346.7562800402318
346.7541290362314
346.7541554278236
346.7542033805767
346.7542573113735
346.7543111137765
346.754364568429
346.7544247721191
346.7545020476078
346.7546037946499
346.7547305436855
346.754875932189
346.7550295765967
346.7551807302777
346.7553212278513
346.7554470662409
346.7555585036889
346.7556587423332
346.7557515859518
346.7558393643284
346.7559242995686
346.7560110709604
346.7561110447939
346.7562386200936
346.7540950382445
346.7541144765955
346.7541542137584
346.75420243443
346.7542537298011
346.7543061518652
346.7543638010345
346.7544347548017
346.7545264349552
346.7546416965115
346.754777506991
346.7549261979784
346.7550781200996
346.7552244123949
346.7553590588137
346.7554799041933
346.7555883415418
346.7556874785402
346.75577948117
346.7558660737137
346.7559519830386
346.7560485933988
346.7561722103722
346.7540564555907
346.7540698343671
346.7541019366607
346.7541439391789
346.7541914202888
346.7542414350506
346.7542957614105
346.7543603674923
346.7544421856149
346.7545455401525
346.7546700767224
346.7548107604149
346.7549595183322
346.7551075761349
346.7552476974496
346.755375769461
346.7554912750285
346.7555961420699
346.7556923711077
346.7557818065353
346.7558686063449
346.755963284175
346.7560830394723
346.7540129955268
346.7540216020261
346.7540472058999
346.7540833104259
346.7541263956138
346.7541731126329
346.7542236333691
346.7542820951827
346.7543545653788
346.7544460687338
346.7545582616471
346.7546885685791
346.7548308869581
346.7549772842907
346.755120056172
346.7552535366911
346.7553751582911
346.7554852550259
346.7555854990462
346.7556780811671
346.7557666231405
346.755860461947
346.7559762504479
346.7539646482209
346.753969838398
346.7539905452409
346.7540217914731
346.7540607781065
346.7541040735936
346.7541507868975
346.7542035895046
346.7542675896163
346.7543480208688
346.754447943446
346.7545668500964
346.7547005896556
346.754842449445
346.7549848830936
346.7551212548641
346.755247199521
346.7553613198299
346.7554647871447
346.7555601567213
346.7556506278907
346.755744284588
346.7558562761121
346.7539112876235
346.753914526546
346.7539320766513
346.7539599461805
346.7539957704994
346.7540361623412
346.7540795505254
346.7541274857098
346.7541841727763
346.7542547753059
346.7543433236232
346.7544510031483
346.7545754377382
346.7547111488546
346.7548509402669
346.7549876701911
346.7551158684631
346.7552328494018
346.7553388138529
346.7554360106215
346.7555276445918
346.7556209134302
346.7557291221333
346.7538529485043
346.7538555540585
346.753871660748
346.7538977499314
346.7539316550401
346.7539700409138
346.7540109122716
346.7540549718299
346.7541056177375
346.7541677695689
346.7542460610225
346.754342989896
346.7544577462672
346.7545861305424
346.754721560611
346.7548567311178
346.7549853872907
346.7551037313772
346.7552109646505
346.7553088844152
346.7554007711225
346.7554931460353
346.7555975334606
346.7537896357691
346.7537928007917
346.7538089193494
346.753834692259
346.7538679210326
346.7539053008975
346.7539445534056
346.7539857570247
346.7540316236033
346.7540867670833
346.754156162383
346.7542433010793
346.7543487029376
346.7544693972612
346.7545995385039
346.7547319034593
346.7548597258795
346.7549782995936
346.7550858388157
346.7551835033564
346.7552744189701
346.7553648077894
346.7554649795932
346.7537215546273
346.7537261836532
346.7537434036043
346.753769944925
346.753803456006
346.7538406288493
346.7538789964002
346.7539181751075
346.753960337073
346.7540097821108
346.7540716600884
346.7541501719472
346.7542468968218
346.7543599198945
346.7544841218577
346.7546125142587
346.7547380963136
346.7548555616717
346.7549623054861
346.7550588122913
346.7551480177755
346.7552357311441
346.7553315321516
346.7536489411985
346.7536556707184
346.7536746010244
346.7537024975146
346.7537368004687
346.7537741685061
346.7538120207955
346.7538496561052
346.7538888458264
346.7539336264754
346.7539892306446
346.754060352974
346.7541493716888
346.7542552242955
346.7543734281333
346.7544972891757
346.7546197594123
346.7547351691692
346.7548403122216
346.754935060933
346.7550219430253
346.7551064501369
346.7551978369043
346.7535723379688
346.7535813277065
346.7536020009366
346.7536311808057
346.7536661501106
346.7537035558365
346.7537407620756
346.7537768905073
346.7538134439997
346.7538542863892
346.7539046999513
346.7539696996299
346.7540521975761
346.7541516817175
346.754264086614
346.7543829301799
346.7545012186667
346.7546132600004
346.7547157287351
346.7548082108515
346.7548928117222
346.7549745789461
346.75506244162
346.7534924516664
346.7535031619167
346.7535248376993
346.7535544872287
346.7535892696595
346.7536259236371
346.7536618576783
346.7536961305995
346.7537301356214
346.7537676435106
346.7538139628355
346.7538742790143
346.7539517410281
346.7540460555701
346.7541532619977
346.7542669306208
346.7543801631151
346.7544875033519
346.7545859752306
346.7546753901199
346.754757774168
346.7548378279924
346.7549238597747
346.753408715701
346.7534203196262
346.7534413664044
346.7534695363352
346.7535022321683
346.7535365470749
346.753570213424
346.7536024501724
346.7536346220627
346.7536703128749
346.7537145349164
346.7537721529825
346.753846018246
346.7539356392328
346.7540370305555
346.7541439632881
346.754250043796
346.7543506390359
346.754443796929
346.7545302370844
346.7546123033122
346.7546939706398
346.7547816493785
346.7533169039658
346.7533277038086
346.7533447732026
346.7533675195491
346.7533942472022
346.7534233272037
346.7534536777461
346.7534852453864
346.7535193149178
346.7535583789502
346.7536054475722
346.7536630023782
346.7537319821196
346.7538112895908
346.7538981408341
346.7539891293739
346.7540814556244
346.7541737022989
346.7542657404422
346.7543582305705
346.7544516356679
346.7545463047471
346.7546437022667
273.0320931569843
273.0348203512925
273.0386652105288
273.0450552412006
273.0373153737393
273.0389153978965
273.0411202271088
273.0443463671566
273.0560049465116
273.0549295495297
273.0546212325325
273.0550590553497
273.0929350125303
273.0880780480402
273.0840211809121
273.0807449435634
273.1262763079128
273.1201538719189
273.1144348745655
273.1091295737376
273.1762155878928
273.1532759168926
273.1395782037482
273.1310106586143
293.394904738564
290.9795708654079
287.4930199530668
275.6408232979494
315.847273128046
311.8183411038917
307.0818269781956
302.0237563767387
322.7932097850965
319.9925368358477
316.5837823660721
313.2139648693329
317.5697930924658
315.4899972358499
313.3904886833243
311.6361981501533
320.0438971923774
317.8163377511899
315.1119698823996
312.3243823963074
328.8124447729639
326.4076933255207
323.1825537706857
319.6448687660557
333.7550706015056
329.7920789607707
324.5824873899498
317.6672699894731
335.5396695563518
330.6696885271144
323.5620903002766
315.2906235267186
338.2086002212768
334.0306977215641
328.2235131287259
320.4559580895024
341.6108466089231
338.6702824520349
334.5159068573291
329.0441001925342
344.7701010901159
343.550306001131
341.7105559861211
339.0238296768528
346.1896450787833
345.8318928081478
345.279586834985
344.4621934890478
346.6283751616306
346.5467990339324
346.4162378539485
346.2154387025852
346.7322377053413
346.7172394246533
346.6922790373023
346.6521309932801
346.7523716294737
346.7501378600965
346.7462417592344
346.7396570835872
346.7557825316291
346.7555836745249
346.7551558665892
346.7543289363177
346.7563349956059
346.7564175059629
346.7564786587341
346.756488622987
346.7564419329375
346.756559737449
346.7566829255459
346.756800062498
346.7564692085048
346.7565884093106
346.756717418456
346.7568478605462
346.7564763598941
346.7565890116599
346.7567125416165
346.7568409232439
346.7564709765242
346.7565747905364
346.756688891329
346.7568106388167
346.7564493587576
346.7565449804915
346.7566494504741
346.7567625855508
346.7564071975028
346.7564968111012
346.756592931532
346.7566970868094
346.7563398211204
346.7564259815269
346.7565168842226
346.7566139110353
346.7562482541182
346.7563330994914
346.756421510159
346.7565138370061
346.7561364207969
346.7562207986302
346.7563084928291
346.7563984254322
346.7560092847963
346.7560933436923
346.7561811332873
346.7562703263467
346.7558738500515
346.7559566560671
346.7560438643475
346.7561326204938
346.7557337044269
346.7558145913374
346.755900670467
346.7559887963032
346.7555931336167
346.7556710998251
346.7557547853388
346.7558414137813
346.7554526157489
346.7555273889979
346.7556082402091
346.7556927245986
346.755313057533
346.7553844150048
346.755461953887
346.7555437401567
346.7551733667784
346.7552416969844
346.7553161800741
346.7553951814827
346.7550324206201
346.7550983207744
346.7551702839219
346.755246875957
346.7548900532402
346.7549542521807
346.7550243913867
346.7550990573568
346.7547534806347
346.7548148261703
346.7548817040504
346.7549528093491
273.0918064961097
275.3448552710354
346.1603585215561
338.3529539534024
341.673954445168
344.8434924169138
346.3028880535791
346.6890411250267
346.7598424374541
346.7706441761575
346.7718465745529
346.7718815031033
346.7718008157207
346.7717110445353
346.7716279555889
346.7715554517717
346.7714970191695
346.7714612317374
346.7714824113853
273.0735748580115
273.2096716501862
273.4484006721934
289.7835063272522
325.0454767282777
337.7744159353414
344.037591266007
346.1439929389019
346.6613853708246
346.7569694930691
346.7703283963642
346.771671693192
346.771679306915
346.7715855070364
346.7714937204847
346.771414103736
346.7713511055191
346.7713113970939
346.77133089012
273.0706542144968
273.1316568256615
273.1831517425617
273.2570258601535
276.7533529151959
312.0346920530237
334.7565125664235
343.4874541221225
346.0783140013226
346.6591373794433
346.7577235830782
346.7702880834436
346.7714311602739
346.7714205545136
346.7713219802641
346.771231740125
346.7711609520774
346.7711156336196
346.7711339934812
273.0834125952446
273.1088367527778
273.1456462233293
273.1763809619258
273.272692013851
282.1051805264017
314.1971826239394
335.1798661377527
343.7538981956066
346.17811049143
346.6822986559954
346.7605732664571
346.7702797074868
346.7711593318156
346.7711213211568
346.771022992981
346.770942815119
346.7708910126258
346.770906431998
273.103189986038
273.1106813307759
273.1323303723145
273.1625214075511
273.1993789590859
273.3733506641041
293.5201184321636
320.4158027674393
337.8980574495305
344.6066316059463
346.3681970685926
346.7109897253513
346.7639470748445
346.7703552720806
346.7708562854367
346.7707871602866
346.7706995484973
346.7706410490437
346.770652514384
273.1201904765755
273.1202302153204
273.1318256701101
273.1559413942671
273.1906719792392
273.2442057090749
275.1559605375418
305.2591785267714
328.7227709730293
341.1466676622866
345.4662646379958
346.5380306843326
346.7384213507375
346.7672691992905
346.7703617888852
346.7705087738442
346.7704267124018
346.7703627111423
346.7703700075699
273.196932893255
273.1483568422819
273.1466604743869
273.1602067095729
273.1883599164674
273.2315092803722
273.3821570309917
296.1426957291685
319.9089432365852
336.3507509022376
343.8451715445221
346.1626719798295
346.6749414042048
346.7590328388691
346.7693257038044
346.7701602865359
346.7701197378992
346.7700530702268
346.7700569708388
289.3808252217243
273.5737454594721
273.1923644448038
273.1837980105462
273.1970750486559
273.2264737696634
273.2980926685244
290.4051569100619
314.2759696658433
332.7146898307228
342.3281430126282
345.7380709949313
346.5912426151914
346.7468604578062
346.7677693207452
346.7697336305084
346.7697746345387
346.7697092737612
346.7697109258767
302.4898399708664
287.0603521979023
273.4610527984447