/*--------------------------------*- C++ -*----------------------------------*\
| =========                 |                                                 |
| \\      /  F ield         | OpenFOAM: The Open Source CFD Toolbox           |
|  \\    /   O peration     | Version:  2206                                  |
|   \\  /    A nd           | Website:  www.openfoam.com                      |
|    \\/     M anipulation  |                                                 |
\*---------------------------------------------------------------------------*/
FoamFile
{
    version     2.0;
    format      ascii;
    arch        "LSB;label=32;scalar=64";
    class       volScalarField;
    location    "0.25";
    object      T.water;
}
// * * * * * * * * * * * * * * * * * * * * * * * * * * * * * * * * * * * * * //

dimensions      [0 0 0 1 0 0 0];

internalField   nonuniform List<scalar> 
2268
(
272.9999756145585
272.9999748517361
272.9999743226626
272.999973644346
272.9999728179358
272.999971884446
272.9999708657022
272.9999697794888
272.9999686543488
272.9999675364547
272.9999664947985
272.9999656283215
272.9999657871976
272.9999707545681
272.9999908287876
273.0000471382436
273.0001770868691
273.0004550692115
273.0010254371958
273.0022005484867
273.0047873118269
273.0114944764422
273.0367723529302
272.9999506865805
272.9999496911424
272.999948871885
272.9999477786959
272.9999464310862
272.9999448804281
272.9999431550866
272.9999412852343
272.9999393197411
272.9999373337312
272.9999354351052
272.999933773975
272.9999339518544
272.9999428854507
272.9999780022642
273.0000711984106
273.0002703024883
273.0006627470424
273.0013930668859
273.0027483634196
273.0054624791782
273.0120858255194
273.0366913116858
272.9999251465622
272.9999240050988
272.9999229352587
272.9999215151831
272.9999197821359
272.99991779619
272.9999156024904
272.999913259637
272.9999108538063
272.9999085012581
272.999906346985
272.9999045640405
272.9999061112366
272.9999232834661
272.9999844515376
273.0001360824039
273.0004386363867
273.0009921404464
273.0019313870848
273.0034987702904
273.0063283304286
273.0127713539822
273.0364210021527
272.9999010616922
272.9998999508728
272.9998988431518
272.9998974232437
272.99989575714
272.9998939373339
272.999892073653
272.9998903180556
272.999888865992
272.9998879341808
272.9998877203583
272.999888350382
272.9998953108173
272.9999297683877
273.0000349008502
273.0002717627866
273.0007078242511
273.0014532543023
273.0026249738719
273.0044098555289
273.007327186399
273.0134994627826
273.0359327981833
272.9998848643235
272.9998842545095
272.9998838251129
272.9998834406975
272.9998832499861
272.9998834727583
272.9998844471091
272.9998866384956
272.9998906041035
272.9998968954046
272.9999059117117
272.9999177127939
272.9999431084679
273.0000184378524
273.0002052386644
273.0005718419455
273.0011759029802
273.0021306639853
273.0035333319373
273.005508868758
273.0084591761205
273.0142610613765
273.0352184239068
272.9998920867794
272.9998932051959
272.9998953861833
272.9998987672488
272.999903737346
272.9999108993189
272.9999212669318
272.9999362212445
272.9999573805393
272.9999863304412
273.0000242880639
273.0000717367978
273.0001519087961
273.0003284847709
273.0006827228145
273.001265918583
273.0020807587882
273.0032330449574
273.0048182388051
273.0069019395679
273.009780302944
273.0150814307242
273.0342746991391
272.9999561494522
272.9999618104035
272.9999709796673
272.999984271724
273.0000026313807
273.0000275955474
273.0000618804285
273.000109151506
273.0001736726432
273.0002597289867
273.0003711181457
273.000510920534
273.0007315251865
273.0011476690821
273.0018577798145
273.0028433838711
273.0039552172987
273.0052289427621
273.0068495462505
273.008846045029
273.0114441695763
273.0160405101548
273.0331213276834
273.0001406961286
273.0001564954625
273.0001811004193
273.0002162187313
273.0002637821839
273.0003272690078
273.0004131434316
273.000530015208
273.0006878033539
273.0008967460666
273.0011670547317
273.0015101472401
273.0020409791132
273.0029681520952
273.0044006869225
273.0061728868706
273.007825480241
273.0090576700562
273.010392453833
273.0118933032337
273.0137989208818
273.017328677393
273.0318326927175
346.7727166717198
346.7726167588169
346.7725519515801
346.7724804107889
346.7724284860386
346.7724039684281
346.7723962341535
346.7723947451013
346.7723908181084
346.7723809761657
346.772358936945
346.7723280282116
346.77229163595
346.7722505840884
346.7722078314818
346.7721657034662
346.7721257921291
346.7720967077408
346.772107968706
346.7726984156958
346.7725991560289
346.7725218317831
346.7724381503355
346.7723762743399
346.7723498952658
346.7723385526148
346.7723330933846
346.7723267093
346.7723152259268
346.7722914664606
346.7722620411669
346.7722251950227
346.7721840843694
346.772141310001
346.7720987378338
346.77205804623
346.7720299527871
346.7720558586004
346.7727057287098
346.7726043948605
346.7725092801256
346.7723872495825
346.7722619329588
346.7722918784675
346.7722980350463
346.7722895868448
346.7722780062809
346.7722616675516
346.7722345031131
346.7722025899429
346.7721634281103
346.7721205818765
346.7720763454077
346.7720323013626
346.7719904910725
346.7719631712191
346.7719931062397
346.7727570398912
346.7726048636489
346.7723809911735
346.7718600718084
346.771179631796
346.7719504919799
346.7722288470024
346.7722493606519
346.7722341812212
346.7722113853317
346.7721797437877
346.7721429168502
346.7721000639775
346.7720543079582
346.7720076285023
346.7719617117928
346.7719185864891
346.7718918435623
346.7719238791332
346.7713519116796
346.7724621029927
346.7708726390065
346.7663350571896
346.7620114853536
346.7691571141483
346.7718363841878
346.7721871699273
346.7721927406753
346.7721641311957
346.7721269097027
346.772083597893
346.7720360536542
346.7719862251287
346.7719361816272
346.771887733563
346.7718429246433
346.7718163560364
346.7718507944208
346.8200921618961
346.7731181901237
346.7578665276109
346.7221911044828
346.702854554088
346.7505167529845
346.769009942821
346.771898348129
346.7721349075341
346.7721196137757
346.7720756371777
346.7720229368251
346.7719680414783
346.7719125634682
346.7718582549656
346.7718064263979
346.7717592556268
346.771732477943
346.7717707396696
345.9378454955027
346.5479322115518
346.6736481745396
346.4437518043021
346.4124053303669
346.6531313594106
346.7517842430989
346.7699182311903
346.7718898994045
346.7720681005476
346.7720333706096
346.7719715739073
346.771905261822
346.771840324622
346.7717789716608
346.7717217967124
346.7716709256115
346.7716433455203
346.7716786260618
355.1766866280661
351.7787950212627
346.0660540220928
345.0122755183935
345.3069518696066
346.2514890200101
346.6665492500629
346.7576006443269
346.7702429775416
346.771869103834
346.7719831747012
346.7719328120955
346.7718638555639
346.7717900215979
346.771719541205
346.7716554261801
346.7716006325014
346.7715698479037
346.7715998098052
273.0005607781127
273.0005966958137
273.0006506935769
273.0007278425548
273.0008311462229
273.0009676750042
273.0011512728976
273.0013999961424
273.0017342664671
273.0021755295047
273.0027468465094
273.0034788005999
273.0046021607104
273.0064904256046
273.009249227442
273.0125094099308
273.0154666889951
273.0169013646307
273.0183745213204
273.0197305185084
273.0208598762284
273.0222854252733
273.0298824359613
273.0020686885964
273.0021685615652
273.0023185519462
273.0025314256921
273.0028129121908
273.0031816519814
273.0036756119953
273.0043424619746
273.005233356854
273.006401029482
273.0079024652724
273.0098214581937
273.0126988580344
273.0174040147031
273.0238350512954
273.0309893328491
273.0373307552075
273.0413300794735
273.0413565339883
273.039956108514
273.0376805201683
273.0354147806435
273.0362712575817
273.0055218741197
273.0057420838776
273.0060803811216
273.0065579093555
273.0071817634806
273.0079943825946
273.0090819714391
273.0105471491545
273.0124899004088
273.0150049378961
273.0181814972911
273.0221601043955
273.0278473556684
273.0374540950664
273.0499204532961
273.06265789066
273.0730412340394
273.0804453848176
273.0816565674863
273.0784371323791
273.0721877009049
273.0645768992523
273.0580558305997
273.0122121203887
273.0126155409706
273.0132630692316
273.0141702977045
273.0153423049522
273.0168658632603
273.0189073802558
273.0216519554343
273.0252490546183
273.0298039014411
273.035370698648
273.0420379682881
273.0507510797516
273.0683838152455
273.0922156020054
273.1146731116348
273.1238195817605
273.1293194537828
273.1349647921654
273.1329131089726
273.124761239069
273.1122823833637
273.0985872560988
273.0234819645161
273.0241114256611
273.0251962055007
273.0266961734146
273.0286159724826
273.031118364109
273.0344871561016
273.0390049661997
273.0447965250543
273.0518346096667
273.0600596872804
273.069015379064
273.0789767360395
273.1106102961634
273.1709141665896
273.2407452181672
273.2098663212889
273.1853963215323
273.1850780810855
273.18327613208
273.1675332942492
273.149515635972
273.132802242668
273.0402854348464
273.0411392872846
273.0427594096066
273.0449679682856
273.0477666007442
273.0514492521279
273.0565141986456
273.063248161029
273.0713549480609
273.0805848141215
273.0912063381348
273.0995401097612
273.1070851704469
273.1656382585237
273.4853239235229
274.7298806374141
275.5174855503141
279.0699258645467
281.8545819639033
283.7892818433576
276.2687424103237
273.5580780873208
273.2185026379166
273.0627408177396
273.0637869668703
273.0658900893477
273.0688459842756
273.0725078899041
273.0775438745707
273.0851628749203
273.0942692675274
273.1030957443797
273.1138743192629
273.1285031006795
273.1347922714653
273.1817243926296
274.7438407581526
291.4211532165901
296.6859382621136
297.1024179039175
298.6594313369084
302.6147180834436
307.2918103867478
307.0946380552821
302.879536527914
296.6979848915304
273.089462607501
273.09071840043
273.0927235134626
273.0963875285402
273.1009164290505
273.1087888833308
273.123109971749
273.133350149631
273.1460253845577
273.207980151032
273.8069746237199
278.4533162784579
280.9975616648872
291.9465502575788
293.9066204041716
298.2545888400012
303.7630902703744
313.9780737383807
322.0124697031935
327.4217812354187
329.9499407307173
327.1800883145154
319.7909262958664
273.1196021425777
273.122160389163
273.1254184058774
273.1350175139013
273.153799220617
273.2084194425561
273.6350762592352
277.3686162510336
283.1428739377097
289.2395118268488
294.5080642055947
298.3206695029608
299.043148102074
293.8677267065984
295.4390879972846
301.4865108065747
313.898605036294
330.8560075087025
337.3387623045862
337.9449445226728
334.9955532664942
330.8333070856525
325.3712290617847
281.2845221695329
281.734648332398
283.5335762421365
285.0720660017664
288.1157707184079
292.3754301556031
297.3321907243321
302.8632034953937
308.2120760943789
312.624702952765
315.2393651317734
316.2922926489667
315.4021959040655
304.0771680469093
299.0150091219449
310.0034272341366
333.6789831204915
341.7712100972046
341.7148629340514
338.2794354656466
332.8541051885636
326.514913606827
320.0440788804904
302.9866405824429
304.405224699957
305.7432140396778
308.2269813930673
311.5572150988689
315.6355924843074
320.0543568648714
324.1928719374731
327.488339152579
329.4947225884746
329.8271492433856
329.0537861302595
326.2367342139106
316.1925852217968
311.0096300037101
326.8090164219843
341.3413180899906
343.9471745168703
341.9740241219221
337.9487904358919
332.6833790712101
327.2859030857331
322.1633151936031
322.3598910322676
323.5417713169854
325.0247529718661
326.9007633772397
329.4858760730743
332.4936357876297
335.3559546260003
337.6098448251549
338.8266902855808
338.7908799239941
337.456772925542
335.6396703159512
330.5079709413261
320.222044356745
317.0715898897976
332.7152573985553
343.5070904577863
344.4938787495579
342.4631309799348
339.1686640865805
335.5587579787877
332.6704728938381
330.5219611440815
335.5364031351229
336.5974432488937
337.6138700948948
338.7946305272272
340.3457955855125
341.9716497316591
343.2615666961962
343.8403240751527
343.3829659343292
341.7895065095196
339.2606401540674
336.7134558807614
328.801496513663
320.066356204295
322.7268297486715
339.0813743366862
345.3171775747068
345.0516503464291
343.4875797306395
341.4452545689241
339.5630740999482
338.2552670717896
336.7988214549277
343.0224242703075
343.5781457862565
344.0526767280075
344.6135853871159
345.2831683270863
345.8456318986304
346.0211103109556
345.4795084433755
343.8837914802168
341.2231723732888
337.9112828353709
334.5949198512354
325.3523961851452
320.6038598282392
331.9614630911918
345.7691803027423
346.0957788669543
345.5895749132699
344.7033285009684
343.6652374807575
342.7503468157107
341.8812765481616
340.0644283393993
346.1520369030919
346.3345017377508
346.4819904110071
346.6355399660357
346.7715262828618
346.7580587902488
346.3611259581384
345.2180435755304
342.9794636490449
339.832667657296
336.1957879099812
332.2928757141114
324.880792797274
327.7785469581912
346.3283944827187
346.7151966346746
346.3298743710176
346.1044828596279
345.6835313713824
345.2072654805033
344.7362548395186
344.032264232327
342.2564716800543
346.9717657368111
346.9879794085155
346.9908177443007
346.968204370024
346.8975017717926
346.6823707252104
346.0746640821739
344.6809183121485
342.2636971780074
339.1987950094569
336.0219346146013
333.078507807604
332.2695187999892
341.4865951470249
346.8310853206196
346.7793756098613
346.5145395838658
346.4567249923626
346.280712004668
346.0878038670106
345.8713079987868
345.4599760306886
344.3170287398846
346.9554352561738
346.9260221996489
346.8958565662387
346.8494935095446
346.755344377248
346.5148084273935
345.8697704593955
344.4987887720077
342.4166669724064
340.2451681721683
338.7436708330795
338.7955641575568
341.5088817493178
345.2037216424833
347.0173452315812
346.7827473527183
346.6316567620816
346.6432346733743
346.5752195243892
346.5082627851704
346.4297728513224
346.2761833371615
345.839995905282
346.7999661296615
346.7818965290096
346.7675290584399
346.7445538385912
346.6848782788559
346.4911400025066
345.9671797712994
344.9521383851784
343.6231616670111
342.5960348223469
342.4956654551029
343.4656500080953
345.0514216274951
346.4227996566856
346.936416499548
346.7774064165542
346.6931854090293
346.723288454721
346.6961850291796
346.6768378061524
346.6539298921151
346.6123743719336
346.4937534360379
346.7303719624315
346.73021363527
346.7307327956985
346.7280308523376
346.7021258444552
346.5885460420086
346.2791186053064
345.7068013425134
345.0060979734712
344.54534337286
344.6526306110092
345.2971730461163
346.1319369985918
346.7364169395848
346.8838053426227
346.7627132565701
346.7230073891591
346.7510707163119
346.7380518258016
346.734028228528
346.7283461713629
346.7196124840612
346.6949407217234
346.7374029980232
346.7412325755806
346.7445191225628
346.7471493605495
346.7399755196827
346.6975745223186
346.5725218525727
346.3230382434934
345.9872936859863
345.7359206192129
345.7750277054773
346.1298145106727
346.5727141545799
346.8312473131227
346.8358063768069
346.7506480561494
346.7378219681867
346.7586094777737
346.7503691616313
346.7506053133671
346.7493115273237
346.7478928312532
346.7438834637308
346.7563950625338
346.7572130179865
346.7577984249637
346.7583700303614
346.758283511989
346.7534351367133
346.7300720151668
346.6656492702485
346.5544934287373
346.446269305493
346.4353643835598
346.5657060176742
346.7479308237176
346.8359915595518
346.7991233535179
346.7442001458361
346.7459645109531
346.7598713319655
346.7534380253009
346.754791818831
346.7544288762298
346.754354967294
346.7539360614263
346.7584431174607
346.7577698637128
346.7572025356701
346.7566752127397
346.7573660604129
346.7610996081879
346.7682235619552
346.7740415179426
346.7697573079914
346.7538108427651
346.7435959653039
346.761412161612
346.7970363430387
346.8060147261251
346.7732144824893
346.7444972227876
346.7507497153927
346.7593832285673
346.7541584386959
346.755765088088
346.755545422303
346.7556984435622
346.7557982892374
346.7535280882578
346.753459577642
346.7534486852358
346.7534542045849
346.7537741970718
346.7552231313518
346.7592789065563
346.7673316082381
346.7786414031235
346.7893459837691
346.7951747057497
346.7951004454733
346.7894723267485
346.7763406020256
346.7581892551848
346.748580758644
346.7538198981218
346.7581353177237
346.7546055627434
346.7559765695111
346.7558044212366
346.7559884644575
346.756146765208
346.753308717284
346.7535459669486
346.7537627536807
346.7540141981178
346.7542613871714
346.7545841605798
346.7553529931045
346.7572667018111
346.7609669105291
346.7660976088254
346.7706545064548
346.7718119155575
346.768021796144
346.760651103909
346.7539343866445
346.7523904408678
346.7554683923727
346.7568289101156
346.7551322674141
346.7559869998553
346.7559088643854
346.7560779850634
346.7562362218822
346.7547969483723
346.7547932069837
346.7548159099374
346.7548029599241
346.7547596172082
346.7546819207655
346.7545809278796
346.7545691736599
346.7548775170908
346.7556867155994
346.7568081594736
346.7575493209523
346.7571612149089
346.7557187850434
346.7544657842714
346.7546766887814
346.755832195064
346.7560812803243
346.7555561657007
346.7559606265434
346.7559808416871
346.7561238368701
346.756274445907
346.7540316897101
346.7540877971063
346.7541614858045
346.7542258562837
346.7542790909433
346.7543449726334
346.7544434065412
346.7545571902912
346.7546557124634
346.7547490118061
346.754883558771
346.7550628718416
346.7552065620428
346.755251185158
346.7552905745785
346.7554894310999
346.7557697770643
346.7558375046719
346.7557792747901
346.7559541089216
346.7560285897979
346.7561515611546
346.7562943590643
346.7542126509775
346.7542534812348
346.7543158463594
346.7543765022773
346.7544301644699
346.7544809400696
346.7545419871631
346.754629382338
346.7547487563514
346.7548886134065
346.755031204952
346.7551670479219
346.7552940537583
346.7554100299901
346.7555169051791
346.7556236231847
346.7557249574722
346.7557970112828
346.755858674926
346.7559601434868
346.7560496160615
346.7561615792687
346.7562977731421
346.7541545075499
346.7541882626479
346.7542439740851
346.7543013443817
346.754354237805
346.7544065087605
346.7544701388815
346.7545571134722
346.7546724850714
346.7548124371824
346.7549662973896
346.7551209374369
346.7552656825898
346.7553950353033
346.7555085434814
346.7556092307677
346.7557008651903
346.7557859465211
346.7558685408732
346.7559549010512
346.7560439775065
346.7561490328319
346.7562804067272
346.7541290362349
346.7541554278264
346.7542033805795
346.754257311376
346.7543111137786
346.7543645684316
346.7544247721223
346.7545020476098
346.7546037946524
346.7547305436881
346.754875932192
346.7550295765996
346.7551807302802
346.755321227854
346.7554470662431
346.7555585036918
346.7556587423358
346.755751585954
346.7558393643312
346.7559242995711
346.7560114396669
346.7561114122141
346.7562389861826
346.754095038247
346.7541144765984
346.7541542137608
346.7542024344324
346.7542537298037
346.7543061518678
346.7543638010376
346.7544347548046
346.7545264349582
346.7546416965141
346.7547775069937
346.7549261979812
346.7550781201025
346.7552244123976
346.7553590588159
346.755479904196
346.7555883415445
346.7556874785428
346.7557794811727
346.7558660737164
346.7559523514095
346.7560489604926
346.7561725761403
346.7540564555936
346.75406983437
346.7541019366633
346.7541439391816
346.7541914202918
346.754241435053
346.7542957614132
346.7543603674945
346.7544421856174
346.7545455401553
346.7546700767256
346.7548107604176
346.7549595183351
346.7551075761372
346.7552476974523
346.7553757694636
346.7554912750313
346.7555961420728
346.7556923711105
346.7557818065383
346.7558689744383
346.755963651009
346.7560834049955
346.754012995529
346.7540216020289
346.7540472059024
346.7540833104284
346.7541263956163
346.7541731126357
346.7542236333716
346.7542820951851
346.7543545653821
346.7544460687365
346.7545582616497
346.7546885685818
346.7548308869607
346.7549772842935
346.7551200561746
346.7552535366935
346.7553751582934
346.755485255028
346.7555854990489
346.7556780811699
346.7557669910078
346.7558608285782
346.7559766157947
346.7539646482238
346.7539698384007
346.7539905452442
346.7540217914759
346.7540607781091
346.7541040735962
346.7541507869
346.7542035895069
346.7542675896196
346.7543480208716
346.7544479434486
346.7545668500989
346.7547005896583
346.7548424494478
346.7549848830963
346.755121254867
346.7552471995241
346.755361319833
346.7554647871475
346.7555605255448
346.7556509955735
346.7557446510634
346.7558566413355
346.753911287626
346.753914526549
346.7539320766541
346.7539599461829
346.7539957705024
346.754036162344
346.7540795505283
346.7541274857125
346.7541841727789
346.7542547753083
346.7543433236258
346.7544510031508
346.7545754377411
346.7547111488573
346.7548509402694
346.7549876701939
346.7551158684657
346.7552328494047
346.7553388138557
346.7554363792731
346.7555280121257
346.7556212797849
346.7557294872696
346.7538529485072
346.7538555540607
346.7538716607506
346.7538977499344
346.7539316550429
346.7539700409162
346.7540109122739
346.7540549718328
346.7541056177405
346.7541677695716
346.7542460610252
346.7543429898988
346.7544577462699
346.7545861305451
346.7547215606139
346.7548567311201
346.7549853872936
346.7551037313796
346.7552109646533
346.7553092529236
346.7554011385345
346.7554935122952
346.7555978985351
346.7537896357713
346.7537928007943
346.7538089193521
346.7538346922616
346.7538679210355
346.7539053009003
346.7539445534086
346.7539857570274
346.7540316236062
346.7540867670859
346.7541561623858
346.7542433010821
346.7543487029403
346.754469397264
346.7545995385067
346.7547319034617
346.7548597258823
346.7549782995965
346.7550858388184
346.7551838717461
346.7552747862828
346.7553651739739
346.7554653446209
346.7537215546299
346.7537261836561
346.7537434036072
346.7537699449272
346.7538034560086
346.7538406288521
346.7538789964031
346.7539181751102
346.7539603370755
346.7540097821134
346.7540716600915
346.7541501719498
346.7542468968244
346.7543599198971
346.7544841218599
346.7546125142611
346.7547380963159
346.7548555616746
346.7549623054894
346.755059180582
346.7551483850067
346.7552360972689
346.7553318971437
346.7536489412013
346.7536556707215
346.7536746010275
346.7537024975173
346.7537368004716
346.753774168509
346.7538120207985
346.7538496561081
346.7538888458287
346.7539336264784
346.7539892306472
346.7540603529769
346.7541493716914
346.7542552242977
346.7543734281362
346.7544972891783
346.7546197594149
346.7547351691716
346.7548403122242
346.7549354291438
346.7550223101914
346.7551068162132
346.7551982018655
346.7535723379717
346.7535813277089
346.7536020009394
346.7536311808084
346.7536661501129
346.7537035558394
346.7537407620787
346.7537768905103
346.7538134440026
346.7538542863919
346.753904699954
346.7539696996324
346.7540521975787
346.75415168172
346.7542640866173
346.7543829301829
346.7545012186694
346.7546132600028
346.7547157287374
346.7548085789986
346.7548931788365
346.7549749449847
346.755062806558
346.7534924516686
346.7535031619192
346.7535248377021
346.7535544872318
346.7535892696625
346.7536259236397
346.753661857681
346.7536961306022
346.7537301356243
346.7537676435132
346.7538139628381
346.7538742790167
346.7539517410309
346.7540460555726
346.7541532620006
346.7542669306234
346.7543801631177
346.7544875033548
346.7545859752328
346.7546757582205
346.7547581412428
346.7548381940016
346.7549242246942
346.7534087157038
346.7534203196294
346.7534413664068
346.7534695363382
346.7535022321715
346.7535365470778
346.7535702134264
346.7536024501749
346.7536346220652
346.7536703128774
346.7537145349191
346.7537721529852
346.7538460182485
346.7539356392351
346.7540370305578
346.7541439632907
346.7542500437988
346.7543506390385
346.7544437969314
346.7545306051524
346.7546126703579
346.7546943366261
346.7547820142852
346.7533169039684
346.7533277038112
346.753344773205
346.7533675195519
346.7533942472051
346.7534233272061
346.7534536777489
346.7534852453892
346.7535193149202
346.7535583789525
346.753605447575
346.7536630023812
346.753731982122
346.7538112895934
346.7538981408366
346.7539891293762
346.754081455627
346.754173702302
346.7542657404445
346.7543585986152
346.754452002691
346.7545466707173
346.7546440671676
273.0320931641938
273.0348203591498
273.0386652195961
273.0450552527449
273.0373153811973
273.0389154058313
273.0411202357255
273.0443463769935
273.0560049531268
273.0549295565
273.0546212399355
273.0550590634124
273.0929350159238
273.0880780515045
273.0840211845863
273.0807449476624
273.1262763043971
273.120153868478
273.1144348713889
273.1091295710587
273.1762155599185
273.1532758965503
273.139578189935
273.1310106488049
293.3949047381131
290.9795708650497
287.4930199478413
275.6408232961821
315.8472731278313
311.8183411033107
307.081826976709
302.0237563748996
322.7932097853155
319.9925368358859
316.583782365678
313.2139648683263
317.5697930923266
315.489997235532
313.3904886827739
311.6361981493195
320.0438971924237
317.8163377509438
315.111969881685
312.3243823950979
328.8124447736549
326.4076933261357
323.1825537710792
319.6448687660464
333.7550706020522
329.7920789613441
324.5824873903531
317.667269989134
335.5396695566353
330.6696885274722
323.5620903005272
315.2906235262935
338.2086002212933
334.0306977215823
328.2235131287455
320.4559580895007
341.6108466089673
338.6702824521261
334.5159068574578
329.0441001926562
344.7701010901685
343.5503060012704
341.7105559864821
339.0238296777757
346.1896450787989
345.8318928081804
345.2795868350576
344.4621934892086
346.6283751616354
346.5467990339403
346.4162378539609
346.2154387026084
346.7322377053446
346.7172394246563
346.6922790373069
346.6521309932857
346.7523716294763
346.7501378600994
346.7462417592373
346.7396570835903
346.7557825316316
346.7555836745273
346.7551558665919
346.7543289363202
346.7563349956083
346.7564178743227
346.7564790265895
346.7564889903979
346.7564423008098
346.7565601045804
346.7566832919005
346.756800427948
346.7564695755904
346.7565887756238
346.7567177839429
346.7568482250447
346.7564767263297
346.7565893773297
346.7567129064685
346.75684128713
346.7564713424009
346.7565751556684
346.7566892556729
346.7568110022262
346.7564497241476
346.7565453451622
346.7566498143886
346.7567629485749
346.7564075624787
346.7564971753836
346.7565932950953
346.756697449532
346.756340185774
346.7564263455093
346.7565172475141
346.7566142735315
346.7562486185347
346.7563334632542
346.7564218732559
346.7565141993442
346.7561367850561
346.7562211622482
346.7563088557949
346.7563987876686
346.7560096489636
346.7560937072292
346.7561814961844
346.7562706885346
346.7558742141682
346.7559570195656
346.7560442272178
346.7561329826699
346.755734068519
346.7558149548235
346.7559010333359
346.7559891584916
346.7555934976913
346.7556714633083
346.7557551482182
346.755841775996
346.7554529798115
346.7555277524816
346.7556086031036
346.7556930868447
346.7553134215815
346.7553847784873
346.7554623167944
346.7555441024317
346.7551737308135
346.7552420604643
346.7553165429914
346.7553955437836
346.7550327846436
346.7550986842515
346.755170646846
346.7552472382786
346.7548904172575
346.7549546156584
346.7550247543184
346.7550994196946
346.7547538446596
346.7548151896592
346.7548820669967
346.7549531717049
273.0918065163538
275.344855268966
346.1603585215854
338.3529539534013
341.6739544455193
344.8434924170535
346.3028880536038
346.6890411250313
346.7598427281163
346.7706444180477
346.7718468118159
346.7718817414121
346.7718010555595
346.7717112857974
346.7716281980906
346.7715556952974
346.7714972634815
346.7714614765819
346.7714826564996
273.0735748813648
273.2096716501851
273.4484006721666
289.7835062827224
325.0454767310682
337.774415936987
344.0375912663829
346.1439929389447
346.6613853708312
346.7569698012638
346.7703286409826
346.7716719323329
346.7716795471943
346.771585748847
346.7714939636504
346.7714143480153
346.7713513506501
346.7713116428002
346.7713311361181
273.0706542332512
273.1316568506262
273.1831517644381
273.2570257744158
276.7533528775618
312.0346920515462
334.7565125700772
343.4874541227267
346.078314001378
346.65913737945
346.7577238909257
346.770288329591
346.7714314017192
346.7714207970992
346.7713222242998
346.7712319853776
346.7711611982557
346.7711158804229
346.7711342406004
273.0834126070166
273.1088367736091
273.145646247674
273.1763809870716
273.2726920138485
282.1051804456965
314.197182624328
335.1798661416052
343.7538981961854
346.178110491477
346.6822986560007
346.7605735625168
346.7702799550648
346.7711595758291
346.7711215663264
346.7710232394516
346.7709430625966
346.7708912607808
346.7709066804946
273.1031899892979
273.1106813433772
273.1323303929215
273.1625214325497
273.1993789829677
273.3733506640573
293.5201184142555
320.4158027716949
337.8980574525602
344.606631606304
346.36819706862
346.7109897253548
346.7639473560406
346.7703555206936
346.7708565322542
346.7707874082662
346.7706997975525
346.7706412988267
346.7706527645343
273.1201904753243
273.1202302218036
273.1318256864849
273.155941418016
273.1906720046432
273.2442057090743
275.1559602456054
305.2591785154984
328.7227709790962
341.1466676639268
345.4662646381603
346.5380306843468
346.738421350741
346.7672694652492
346.7703620388447
346.7705090237261
346.7704269633429
346.7703629628554
346.7703702596714
273.1969327754867
273.1483568355163
273.146660483464
273.1602067298012
273.1883599418668
273.2315092972959
273.3821570309396
296.1426957144429
319.908943239959
336.3507509057274
343.8451715451229
346.1626719798832
346.6749414042112
346.7590331525977
346.7693259603176
346.7701605389015
346.7701199910735
346.7700533241936
346.7700572252082
289.3808252063807
273.5737454593989
273.1923644042121
273.1837980210765
273.1970750703821
273.22647379501
273.2980926685183
290.4051568883613
314.2759696662167
332.7146898358947
342.3281430138529
345.7380709950563
346.5912426152029
346.746860457809
346.7677695871591
346.7697338860007
346.769774890321
346.7697095303243
346.7697111828467
302.4898399655928
287.0603521801542
273.4610527983984
273.218776921941
273.2165453027461