/*--------------------------------*- C++ -*----------------------------------*\
| =========                 |                                                 |
| \\      /  F ield         | OpenFOAM: The Open Source CFD Toolbox           |
|  \\    /   O peration     | Version:  2206                                  |
|   \\  /    A nd           | Website:  www.openfoam.com                      |
|    \\/     M anipulation  |                                                 |
\*---------------------------------------------------------------------------*/
FoamFile
{
    version     2.0;
    format      ascii;
    arch        "LSB;label=32;scalar=64";
    class       volVectorField;
    location    "0.25";
    object      U;
}
// * * * * * * * * * * * * * * * * * * * * * * * * * * * * * * * * * * * * * //

dimensions      [0 1 -1 0 0 0 0];

internalField   nonuniform List<vector> 
2268
(
(0.03284524022593942 -0.01488369696878626 0)
(0.07528361436461264 -0.01505052022017766 0)
(0.1282581092063533 -0.01484951930135161 0)
(0.1806755294357373 -0.01483664803026427 -3.114582156101151e-24)
(0.2327693081792776 -0.01486360483442798 -6.415590662646433e-24)
(0.2850342788570697 -0.01486303953147102 -3.348268509754179e-24)
(0.3374709943668672 -0.01483185823234192 -3.509621440912856e-24)
(0.3898844620536768 -0.01475509160980122 -7.382475626935914e-24)
(0.4419948941537593 -0.01459879430798043 -7.794687181594493e-24)
(0.493392854841572 -0.01431512294874919 -4.127756321239974e-24)
(0.5434664890111213 -0.01384053561147835 0)
(0.5913244768184964 -0.01309094653566462 0)
(0.6357013630258933 -0.01195628651391015 0)
(0.6748353479231874 -0.01029559429927405 0)
(0.7063219157237262 -0.007937103088160351 0)
(0.7269635752831815 -0.004687713554287612 6.435137004645929e-24)
(0.7326754995888843 -0.0003413561600779469 7.421924572145633e-24)
(0.7186294074535939 0.005337792830522515 8.633856250030534e-24)
(0.6787771006487024 0.01301837282388874 2.031064961514938e-23)
(0.6063372732734272 0.02341779510705314 1.140656300804679e-23)
(0.4963235801269162 0.03686405800179479 0)
(0.3231692776384627 0.05489703053850621 0)
(0.1730247092214884 0.07325746860917122 0)
(0.03298747169058559 -0.03567087959641613 0)
(0.07597033051221502 -0.03608820860336098 0)
(0.1294040746208101 -0.03590068606137544 0)
(0.1821497609517238 -0.03605819958033864 -7.768683461310752e-24)
(0.2346203909737304 -0.03625151511144461 -1.597825557468919e-23)
(0.2872848527339583 -0.03635469273206996 -8.336111578761108e-24)
(0.3401288454494948 -0.03635832711289796 -8.754154548954903e-24)
(0.3929701101547687 -0.0362189388973542 -1.849062625481801e-23)
(0.4455444262730372 -0.03584711751023735 -1.964802093492141e-23)
(0.49745902818753 -0.03511689978702052 -1.049640587341651e-23)
(0.5481246129070667 -0.03385836966844305 0)
(0.5966815933663128 -0.03184235146349423 0)
(0.6419076744266877 -0.02876081236018633 0)
(0.6820960643026603 -0.02420442098772482 0)
(0.7149089982799783 -0.01764884707709154 0)
(0.737235318205013 -0.00846360651907389 1.811888847324473e-23)
(0.7448937930758861 0.004029081255376168 2.130714615240011e-23)
(0.7328592624329122 0.02053150968497826 2.544468607635184e-23)
(0.694897546567332 0.04186282055515279 6.148375022836998e-23)
(0.6234694220961249 0.06844952284730443 3.659816704501543e-23)
(0.5127113309889445 0.09927621261808102 0)
(0.3343471748029839 0.1336209873752756 0)
(0.1767177972457984 0.1566179075693998 0)
(0.03255902852443818 -0.06115025407121554 0)
(0.07580979917230846 -0.06164462043204636 0)
(0.1292874967457836 -0.061572528610225 0)
(0.1819421587718308 -0.0618835724683514 0)
(0.2344005754985855 -0.06222210661377992 0)
(0.2870936043772683 -0.06244602245885818 0)
(0.3399938787341498 -0.06252253431952676 0)
(0.3929402291218771 -0.06236883478651028 0)
(0.4456933437871869 -0.06183794429930302 0)
(0.4978875366165856 -0.06072425752189835 0)
(0.5489684465139909 -0.05874897724572582 0)
(0.5981230386533423 -0.05553609332675782 0)
(0.6441886464707294 -0.05057979365214314 0)
(0.6855248873864155 -0.04320612385666519 0)
(0.7198482113925179 -0.03255358403906765 0)
(0.7440551905641524 -0.01759489749225999 0)
(0.7540259602960232 0.002844334122487787 0)
(0.7450712788275198 0.03025442800232729 0)
(0.7106723494171089 0.06612123023490198 0)
(0.6427154708632697 0.1114114103864281 0)
(0.5344608052112447 0.1652314168412027 0)
(0.3538035693171607 0.2259054642886397 0)
(0.1870110753462667 0.2700890146849423 0)
(0.03211877972478427 -0.08562810783961246 0)
(0.07568641869334135 -0.08616922103957651 0)
(0.1291749453549783 -0.08624728878596087 0)
(0.1817229066790234 -0.0866697697131299 0)
(0.2341682707483509 -0.08709689734929618 0)
(0.2869023122216454 -0.08739396424048505 0)
(0.3398921992682538 -0.08750217701538067 0)
(0.3930055753097157 -0.08729867828880661 0)
(0.4460376183235231 -0.0865825592685051 0)
(0.4986625909861954 -0.08507328547313002 0)
(0.550377787441259 -0.08238791674558564 0)
(0.6004391820112366 -0.07800881403452617 0)
(0.6477739197529462 -0.07123426918831889 0)
(0.6908426749046082 -0.06111505555987381 0)
(0.7274513581360791 -0.04641988852961695 0)
(0.7545854815698823 -0.02565792652270586 0)
(0.7680374339405773 0.002900547732809716 0)
(0.7632175447512449 0.04089095088245723 0)
(0.7336374371436614 0.09054250521833386 0)
(0.6706664627809936 0.1539405256578042 0)
(0.5666867540820093 0.2314066080536497 0)
(0.3847474121288225 0.3217303951846671 0)
(0.2054507798170089 0.3949574122700772 0)
(0.03167024732629087 -0.1095030762880553 0)
(0.07554668430153932 -0.1101787204497278 0)
(0.1290181023747523 -0.1105554277400862 1.072461209146644e-22)
(0.1814634333981588 -0.1111917111198791 1.099102238641299e-22)
(0.2339051258970533 -0.1118117186938145 0)
(0.2867011657197654 -0.1122984369262205 1.204585971045889e-22)
(0.3398231842142307 -0.1125658567065537 0)
(0.3931739781988275 -0.1124530083906879 -1.376068488601997e-22)
(0.4465919434779937 -0.1117106949845543 0)
(0.4998042523441427 -0.1099915728158117 -1.626761781884594e-22)
(0.5523770976868015 -0.1068190096728248 -1.788917098346408e-22)
(0.6036600453496929 -0.1015485464076968 0)
(0.6527052706609756 -0.09329808773932369 0)
(0.6981139412213611 -0.08084987937620246 0)
(0.737805729356123 -0.0625995655199986 0)
(0.7688017093606165 -0.03660417487632358 3.284806647636569e-22)
(0.7870174656250408 -0.0006629307848555659 3.891923938621499e-22)
(0.7877102695320609 0.0476682917904882 0)
(0.7646129196184938 0.1112152177077812 0)
(0.7087738884220022 0.1931202349351909 0)
(0.6116338222590439 0.2956676775663717 0)
(0.4302891237223178 0.4201703104474395 0)
(0.2345931232481305 0.5342164745423298 0)
(0.03125112042885318 -0.132915298922056 -1.7118679752952e-22)
(0.07541182995300479 -0.1336110574056815 -1.710741626824241e-22)
(0.1288356839104596 -0.1342515372428744 1.304187281757678e-22)
(0.1811964544089069 -0.1350455468860184 1.334113405176883e-22)
(0.2336494021487443 -0.1358226220370637 0)
(0.2865318817386249 -0.1364862559653994 1.453609275617577e-22)
(0.3398303776724466 -0.1369211294166784 0)
(0.393487568559018 -0.136929913582783 5.520571505471578e-23)
(0.4473927577325115 -0.1362199396793621 2.391809349462783e-22)
(0.5013384321999529 -0.1343846455925048 -1.960402807649075e-22)
(0.5549766153875877 -0.1308644899495849 -2.160132123779477e-22)
(0.6077769734090197 -0.1249053735778877 0)
(0.6589583054282339 -0.1154630517379 -5.36730125357211e-22)
(0.7073123501361237 -0.1010575773454956 -6.061569010016293e-22)
(0.7509153383679871 -0.07970418517075203 -4.620684588135602e-22)
(0.7868812947137497 -0.04901483464372248 -1.343201130277126e-22)
(0.8111827278306529 -0.006338357860724451 4.804970016181818e-22)
(0.8187769931777796 0.05138815513795992 0)
(0.8039340449777734 0.1279007090442578 0)
(0.7577945261524232 0.2278201030772897 0)
(0.6713981838986719 0.3565027715352707 0)
(0.4954976717277985 0.5210061978123869 0)
(0.2794452838616374 0.696860454030002 0)
(0.03091995876686127 -0.1575759458706479 -2.219168459927605e-22)
(0.07536797720847577 -0.1580931835955333 -2.226018500957724e-22)
(0.1286958887464514 -0.1588909267778416 0)
(0.1809950729359414 -0.1597243576712875 0)
(0.2334681439663595 -0.1605609087683174 0)
(0.2864522724239645 -0.1613286800157359 0)
(0.3399602271067213 -0.1618829065752149 0)
(0.3939776169714528 -0.1619922845427281 2.858398576094531e-22)
(0.4484509152781838 -0.161325283517289 3.084290299633931e-22)
(0.5032486018891662 -0.1594226664874204 0)
(0.5581229465243345 -0.1556510067065795 0)
(0.6126881478762636 -0.1491618375577031 0)
(0.6663683858555165 -0.138757925885976 -6.780962607430059e-22)
(0.7181897867176483 -0.1226761312469878 -7.6022456538023e-22)
(0.7664174238676391 -0.09848781453914071 -5.742045835395706e-22)
(0.8082632175142468 -0.06326084117708623 -6.600705550322529e-22)
(0.8399011979339328 -0.01378251745293752 0)
(0.8558879006987973 0.05315580687633047 0)
(0.8512945027287483 0.1414331706016674 0)
(0.8180514051300288 0.2576124725900322 0)
(0.7481974793134158 0.4117410192279923 0)
(0.5886626401571169 0.6213521953695229 0)
(0.348783920977021 0.8957576936183309 0)
(0.03069777957656782 -0.1861677051064897 0)
(0.07546171567760125 -0.1866669281336464 0)
(0.1286225532887875 -0.1877308182294257 0)
(0.1808927399947042 -0.1887492279529843 -2.81260697833509e-22)
(0.2333934195272536 -0.1898046379971937 -5.852873320795856e-22)
(0.2864904698477122 -0.1908476889095819 -3.073841713290426e-22)
(0.3402372033792533 -0.1917122295733971 -3.259509480094974e-22)
(0.3946649978768155 -0.1921392661421426 -3.487737296097141e-22)
(0.4497842017770732 -0.1917655720623004 0)
(0.5055502539934241 -0.1900885913124576 0)
(0.5618301377157052 -0.1864151839604439 0)
(0.6184081309405085 -0.1798311933546224 0)
(0.6749501414962186 -0.1690058567440648 5.500256130954485e-22)
(0.7307526962910162 -0.1518664463550727 6.152569175495831e-22)
(0.7843060033217771 -0.1254723079337411 6.945154683379186e-22)
(0.8329879764094441 -0.08629192992653444 1.588416646003988e-21)
(0.8731579073078543 -0.03061019047666951 9.255121960698562e-22)
(0.8984552820773138 0.04560465834909364 1.085578070920688e-21)
(0.905713936483194 0.1463346552706493 2.598028851441829e-21)
(0.888720868120651 0.2791239727502802 1.640156237692841e-21)
(0.8431899351520237 0.4588038773961149 0)
(0.7234534183917808 0.7184253065588835 0)
(0.4576965797090718 1.167654970734689 0)
(-0.02355121730720482 0.009242723342531923 0)
(-0.05785688483703263 0.01513433696811065 3.968613417010958e-21)
(-0.1187796659527894 0.009245331424439701 3.367108952078994e-21)
(-0.1379395985244923 0.002858418423943554 -1.068716781894558e-23)
(-0.1296846999233585 -0.003687762130526718 7.970646968436724e-22)
(-0.09789934098172742 -0.007976683253969793 4.499667851868901e-22)
(-0.05418156295540066 -0.009486676051443689 0)
(-0.008596209271957101 -0.00904655143178143 0)
(0.03273413199938655 -0.007344101542708158 8.914349699936254e-22)
(0.06494431259865735 -0.005507391350734736 3.844873035026408e-22)
(0.08688237139522 -0.00335654078928725 -9.509698862996093e-22)
(0.09972618084110599 -0.001363654892948746 -1.06772153462224e-21)
(0.1036756941709038 0.0003255549646905861 -1.105810478906448e-21)
(0.1000293164499582 0.001742958607602102 0)
(0.09002344424626994 0.002931455556795066 0)
(0.07492242083424003 0.003858365037912319 -1.668234948494806e-24)
(0.05602891981263128 0.004546980744353019 1.195549368499838e-21)
(0.03449912810377063 0.004979517451638792 7.308341272195663e-22)
(0.0117943036771636 0.005226850457232012 4.023631586229454e-24)
(-0.02840169440398334 0.02002568281772416 0)
(-0.0688081956951813 0.04256506299001908 4.184257335088771e-21)
(-0.1363854397236353 0.02690835359680567 3.50787126171745e-21)
(-0.1548911666542389 0.007115430085823861 -3.33155326519883e-23)
(-0.142432126470567 -0.01260721210873565 7.584849382912056e-22)
(-0.104960886742033 -0.02496834298927125 4.193811175415626e-22)
(-0.05602187164542162 -0.02925368375693127 0)
(-0.006060922362808276 -0.02775063246880011 0)
(0.03885463719499507 -0.02287878271977131 0)
(0.07317685839438064 -0.01711910892108331 -7.534355824894832e-22)
(0.09654057805909366 -0.01054587825741165 -9.472714966548986e-22)
(0.1099667282163931 -0.00433923781701245 -1.072260946809703e-21)
(0.113799572444379 0.001089749438770287 -1.115255014674081e-21)
(0.1094484422812193 0.005672017484388461 0)
(0.09826219430666239 0.009442199056891878 0)
(0.08163455138106759 0.01233799222005863 -5.096807911018502e-24)
(0.06098740908769527 0.0144528364983681 1.200665051875624e-21)
(0.03753916527114235 0.01580007574834759 7.435511529004845e-22)
(0.01280068251977045 0.01622285895026224 1.243084821533171e-23)
(-0.02573103038600694 0.03589932467158189 0)
(-0.0709339212024484 0.07548879663061411 2.315938127340794e-21)
(-0.1484861735356117 0.04626802081680884 1.905700656465245e-21)
(-0.1674359641082555 0.01106836059202352 0)
(-0.1524589975570615 -0.02343277862860586 0)
(-0.1099041913872781 -0.04421035828037961 0)
(-0.05662795631113897 -0.0508374544350516 0)
(-0.003885705123692484 -0.04768592924565779 0)
(0.04250030175362864 -0.03917392899735617 7.551357004185814e-22)
(0.07724188131536963 -0.02891871154051733 -3.641668274538682e-22)
(0.1008427817036596 -0.01768807002768236 -1.890457303822945e-21)
(0.1140048614868136 -0.007167895462243989 0)
(0.1173851089311798 0.00208130643453271 0)
(0.1125653284750136 0.009950837697298622 0)
(0.1008615161480206 0.01628092882374458 0)
(0.08368010687587564 0.0211742617170144 0)
(0.06246284342755586 0.0247231406001244 1.229506091519276e-21)
(0.03843023121531802 0.02701041729241987 7.450110405550637e-22)
(0.01310223404140993 0.02777019100626903 0)
(-0.01821206259991244 0.05043664254971596 0)
(-0.07158842312210706 0.1138359047547702 2.79936599508575e-21)
(-0.166586738584225 0.06792183927512034 1.831666757233331e-21)
(-0.1870248460097951 0.01501701976849805 0)
(-0.1677008324921225 -0.03689994322248547 0)
(-0.1171709043605524 -0.06625281676148534 0)
(-0.05748531111915711 -0.07442477484111557 0)
(-0.0008256802080408759 -0.06890027653850093 0)
(0.04753653267775818 -0.0561240655157134 1.257560386104039e-21)
(0.08275121662933328 -0.04088558420127002 1.389926260347214e-21)
(0.1064178410923579 -0.02478519792561949 -9.459927261578062e-22)
(0.1190952293731156 -0.009854752099683034 -1.107829090345829e-21)
(0.1218247632034865 0.003280333985489072 -1.170576161534283e-21)
(0.1162740542310909 0.0144538890852598 0)
(0.1038133272723812 0.02335668260263003 0)
(0.08592398697304053 0.03026659334426016 -1.470423612461742e-22)
(0.06402414555631618 0.03526599083644149 4.706956191779897e-22)
(0.03934808899102837 0.03849261478913705 3.840823086356049e-22)
(0.01341281766278749 0.03956382652361871 0)
(-0.003943470280472636 0.06246714014918461 0)
(-0.07099946754256703 0.1603129341901683 3.204022867055081e-21)
(-0.1918278116310486 0.09278657308855086 1.994409290834818e-21)
(-0.2137533564335507 0.01861831657771235 -8.432860083063339e-22)
(-0.1878598901644079 -0.05391106139365431 0)
(-0.1259675969623098 -0.09172680843213973 0)
(-0.0577052537222968 -0.1003895256872043 0)
(0.004041543222447637 -0.09135163066868456 0)
(0.05466864259646453 -0.07367389496939548 4.656699992093614e-22)
(0.09042276054665604 -0.05299532676529744 3.275371663485185e-22)
(0.1139831865050879 -0.03175311977462635 -9.507366698030681e-22)
(0.1259249690820878 -0.01222658911254724 -2.282259177608575e-21)
(0.1277465853086448 0.004927942015906723 -1.217901692127878e-21)
(0.1211685692771992 0.01929107129816654 1.18337300857892e-21)
(0.1076733481983648 0.03081618549479937 0)
(0.08883225131293281 0.03970639550448346 -1.911861976451707e-22)
(0.06603583758739999 0.04612900356627502 -4.255087840973124e-22)
(0.04052397777269444 0.05027441933052545 -2.278835805360856e-22)
(0.01380956496207312 0.05164400421859157 0)
(0.02154134381684806 0.06904449890161227 0)
(-0.06807907820589332 0.2190305250110413 3.781286957697365e-21)
(-0.2243395086611955 0.1220001615141879 4.085781436163967e-21)
(-0.246487939947535 0.02005906881482011 4.07131029661857e-22)
(-0.2114614127390333 -0.07356763399542708 0)
(-0.1352674133223316 -0.1203019302783295 0)
(-0.05644106004114779 -0.1284624529310108 0)
(0.01169573354475859 -0.1146069185483152 -2.923470811393484e-22)
(0.0643912932997338 -0.0914024298277928 -1.473322435889937e-22)
(0.1006203391314926 -0.06503542279842583 -1.22345996170265e-21)
(0.1237237146872121 -0.03845424426214382 -1.832906708379685e-21)
(0.1346333543577825 -0.01415159343222871 -2.252740244331664e-21)
(0.135199894058233 0.007051524945714618 -1.279665033057798e-21)
(0.1272884666127871 0.02463418016158864 1.246873610109746e-21)
(0.1125080961844279 0.03875509568038066 0)
(0.09245035020315281 0.04959004291412013 0)
(0.0685325932076612 0.05740132946316239 -2.63195803898099e-22)
(0.04198132846874176 0.06243775828702248 -6.575859336445579e-22)
(0.01430121791442658 0.06409238943598854 -3.886902987011223e-22)
(0.06602411316687992 0.1216499694725604 0)
(-0.06131344767841883 0.290861085882919 1.003380165743903e-20)
(-0.2645124336422835 0.1494092005975708 8.976213016939158e-21)
(-0.2785666148220298 0.0205661021707057 1.81256795203757e-21)
(-0.2317774836694815 -0.0985742429729646 0)
(-0.1429376769404427 -0.1552149047626234 0)
(-0.05299904023781648 -0.1610766604149201 0)
(0.02298153174287839 -0.1397613468730205 -3.65335824426506e-22)
(0.07723033200553092 -0.1096523673709605 -1.777597543882171e-22)
(0.1138376862916498 -0.07678693347454905 -5.622054356485958e-22)
(0.1360047749217791 -0.044602828672402 -8.761031689652109e-22)
(0.145350029591479 -0.01543088306685262 -2.351922029960934e-21)
(0.1442528283115735 0.009770669060659284 -2.714670301860532e-21)
(0.1346555389145066 0.03067324151051492 0)
(0.1182889817455127 0.0473091738682884 0)
(0.09676498399024203 0.06002640249348225 0)
(0.07150510114544623 0.06917662254940034 0)
(0.04371442762066801 0.07506534287409494 -4.499610971058413e-22)
(0.0148875462260549 0.07698432151564168 -4.653551467700036e-22)
(0.1315237687999599 -0.1120376320248192 -5.939977361577832e-21)
(-0.06443732011806787 0.3414039545264187 9.407987200918348e-21)
(-0.3031349203318942 0.2271673630148976 8.360075193401543e-21)
(-0.280688373990099 0.04640993262222239 0)
(-0.2332801641371526 -0.149449595026839 0)
(-0.1423529857032583 -0.2087791285050243 0)
(-0.04515792338412832 -0.2062499334240147 0)
(0.03874265310172007 -0.1725914860872132 0)
(0.09426288194773266 -0.1317812523290265 -2.971777843536702e-22)
(0.1314060993862416 -0.08989443343912541 2.461235720965073e-22)
(0.1519884518020449 -0.05062686634484516 -9.976274263321174e-22)
(0.1587954519524016 -0.01597228554464114 -1.320319769255604e-21)
(0.1550823758793447 0.01325901593748051 -1.452193626842618e-21)
(0.1433059328541924 0.03729677095223884 0)
(0.1249996048351069 0.05633964264023755 3.803695838245452e-22)
(0.1017531064100701 0.07085074548170407 4.41679063683865e-22)
(0.07493387407825206 0.08126542620973475 7.912018416006157e-22)
(0.04571002108005037 0.08795378064828267 1.001537987123295e-21)
(0.01555706471578486 0.09012278131968952 5.41926035648305e-22)
(0.03045325490755725 -0.2167845094030611 0)
(0.07550800897755848 -0.2177028258144151 0)
(0.1284248735628356 -0.2190518786404573 0)
(0.1806937507028632 -0.220453092875072 -3.132251155347261e-22)
(0.2332282531685514 -0.2219335105142004 -6.531648880135154e-22)
(0.2864518329739725 -0.2234462597997016 -3.443340479972785e-22)
(0.3404731964419943 -0.2248222088014559 -5.878724919233177e-37)
(0.3953757131136565 -0.2257809965713825 5.728760645206158e-37)
(0.4512450405848749 -0.2259315892831933 0)
(0.50813912355987 -0.2247332105364214 4.743121834012144e-22)
(0.5660588819931175 -0.2214421874123105 5.266647152384129e-22)
(0.6249920521281959 -0.2151076999386308 -2.948348088293702e-22)
(0.6848904728542305 -0.2042715482107793 3.324965719797267e-22)
(0.7453720433055523 -0.1864892156105026 7.542206120248366e-22)
(0.8052590567486207 -0.1581919504660291 1.290825822880151e-21)
(0.8624347157103674 -0.115160476833816 2.471435031708667e-21)
(0.9146040698402919 -0.05310339595200367 1.142837657146785e-21)
(0.9571865353527852 0.03252628846075321 1.324861682323718e-21)
(0.992689906860746 0.1423566988675755 3.084624963798774e-21)
(1.021887722920294 0.2847708425879545 1.864237176376652e-21)
(1.057891222302008 0.4737639284435764 -2.368723298846843e-21)
(1.161151892356912 0.730739546879512 -3.083656564187377e-21)
(1.274599995387196 1.145949133569097 0)
(0.02955342910604531 -0.2722908843319281 0)
(0.07488067510684217 -0.2738866131485398 0)
(0.1272806872209321 -0.2755607140382049 0)
(0.1792098810173492 -0.2775216813034278 0)
(0.231590375492288 -0.2797303406558678 0)
(0.2848550803748952 -0.2821371510410869 0)
(0.3392080269343855 -0.2845821651335352 4.120553760870749e-22)
(0.3948498173800221 -0.2867757347438332 4.485025286749937e-22)
(0.4520268217514731 -0.2883170322922242 0)
(0.5110031106284763 -0.2886457489683449 5.51219210555481e-22)
(0.5720356261900741 -0.2869951050297829 6.216824568917334e-22)
(0.6354783691242698 -0.2824496978596894 -3.54162988632257e-22)
(0.70170741698043 -0.2733597819160671 -4.069980199332787e-22)
(0.7706594650116696 -0.2565826106551171 0)
(0.8412861434268273 -0.2274921677798706 5.446666681453422e-22)
(0.9115086307772793 -0.1811957432348622 6.293330918684293e-22)
(0.978841407732746 -0.1138400642076327 0)
(1.043138283607276 -0.0234061933515453 0)
(1.099701361172123 0.09266057292471765 0)
(1.15583183057432 0.2335211233945533 0)
(1.220042044493325 0.4012235320702718 -1.835638527468326e-21)
(1.320266288836762 0.5885979636819807 -1.208227640832054e-21)
(1.44522390580344 0.7497784167725721 0)
(0.02872987813581926 -0.322757249340831 0)
(0.07430192743015622 -0.3247912065528055 0)
(0.1260472309372586 -0.326813489205811 7.556626539180018e-22)
(0.1774737424057164 -0.3292917525253693 7.82593472327736e-22)
(0.2295518134076145 -0.3322614130966894 0)
(0.2827268261894753 -0.3356972415537275 0)
(0.3373068428754384 -0.3394605190531342 0)
(0.3936185816045737 -0.3432861974342863 0)
(0.4520932790085642 -0.3468137409553071 0)
(0.5132124476631524 -0.3495155298326236 0)
(0.5775023388076467 -0.35065331983593 0)
(0.6456449331115292 -0.3493814795166673 0)
(0.7181825231042086 -0.3436860990986398 0)
(0.7949178961081848 -0.3295504478298845 0)
(0.8745166471079465 -0.3010434828371044 0)
(0.9541771081052398 -0.2521395342227138 0)
(1.031180459486653 -0.180121739488393 1.839468621140281e-21)
(1.104663863230279 -0.0830119975814336 2.037130931674763e-21)
(1.17494097178174 0.04055204503454141 0)
(1.243863556135702 0.179152559501903 -4.10484374330282e-21)
(1.313716240395008 0.3290771482570904 -3.509548098975977e-21)
(1.39502144246701 0.4779889245500403 0)
(1.512945418221306 0.6025002872324531 0)
(0.02787607248018102 -0.3728431909273198 0)
(0.07347904050097624 -0.3753847915942562 0)
(0.1244065286499353 -0.3779208983233073 2.043030703671271e-21)
(0.1751659210923895 -0.3811328794783961 2.119209063920558e-21)
(0.226770347661558 -0.385146792174036 0)
(0.2796910794031744 -0.3899798915815348 0)
(0.3343508719253804 -0.3955340406183015 0)
(0.3912051645854562 -0.40159739981648 0)
(0.4508825359677109 -0.407876970598168 0)
(0.5140632911659471 -0.4139268277325476 0)
(0.5815314783539057 -0.4190911279001672 0)
(0.6540802289188408 -0.4226536853465553 0)
(0.7317411593168948 -0.4221920649061044 0)
(0.813609364712114 -0.4139793537727441 0)
(0.8989177331928588 -0.3912657053613117 0)
(0.9835580111838661 -0.3449765917854123 0)
(1.063163571823177 -0.2753769244280556 2.143131273337267e-21)
(1.13754565155462 -0.1800923958524426 2.261930679115341e-21)
(1.210161210159975 -0.06515358492669202 0)
(1.28573531994303 0.06991444424765948 -1.075039820922523e-20)
(1.357998650501477 0.2143621089456845 -9.062819947535015e-21)
(1.429622092319802 0.3615270287941045 0)
(1.528828432834891 0.4938838028238882 0)
(0.02706320005326706 -0.4220559787251311 0)
(0.07248204935445424 -0.4250204959699168 0)
(0.1224537472125939 -0.4280640463902908 1.29663072345704e-21)
(0.172404460773482 -0.4320712594970203 1.348988004568921e-21)
(0.223378437069802 -0.4372495138358623 0)
(0.2758785630200651 -0.4436776690921052 0)
(0.3304453665295974 -0.4513372200836713 0)
(0.3876467680009626 -0.4601241245608753 0)
(0.4482165055988486 -0.4699211560761451 0)
(0.5128533832326603 -0.4805405638179827 0)
(0.5822127466765541 -0.491692758786303 0)
(0.6564910134544262 -0.5032092489556048 0)
(0.7338300298439291 -0.5115511993270545 0)
(0.8120592826963242 -0.5149414352673047 0)
(0.8971366458722283 -0.5040161708700239 0)
(0.9859110321432442 -0.4652057484687626 0)
(1.063630332728806 -0.4002955942457109 0)
(1.132392852578927 -0.2977354266942483 0)
(1.196302486906527 -0.1624113472199233 0)
(1.25528370388372 -0.01213948856874513 -8.110193685385337e-21)
(1.327416811313567 0.1503519004180027 -5.457870102049101e-21)
(1.400512152603924 0.2939258470770292 0)
(1.488015522363729 0.414570872872789 0)
(0.02633464752582744 -0.4701323640470932 0)
(0.0713497528093293 -0.4733941115008265 0)
(0.1202551263500279 -0.4769847249684353 0)
(0.1692577289380511 -0.4819501835774639 -3.355544254140636e-21)
(0.2194076615647595 -0.4885838953920378 -3.547566561124986e-21)
(0.2712129549184702 -0.4970831742729885 0)
(0.3252669441510822 -0.5076063847741689 0)
(0.3820366901100106 -0.5203458696873002 0)
(0.4420494169634908 -0.5354592473789773 0)
(0.5056287439269974 -0.55290516092399 0)
(0.5718795650181862 -0.5721739973365577 0)
(0.6410302071083349 -0.5905355010271722 0)
(0.7101186420806089 -0.5991682387132555 0)
(0.7750650529608387 -0.5960284005950094 0)
(0.8590261765026121 -0.5766719142851437 0)
(0.990702009349143 -0.4917068613800941 0)
(1.155007400336832 -0.4037567825387993 0)
(1.429451751033892 -0.234329235847141 0)
(1.452369866196864 -0.08657147258174672 3.185080987381662e-20)
(1.481628688357847 0.04208324726785798 2.162007298658774e-20)
(1.394061101099996 0.1901230527016977 0)
(1.398526483086751 0.2929559676905052 0)
(1.475348535527511 0.3947076732124479 0)
(0.02568160834836077 -0.5193884813101504 0)
(0.06995699609331445 -0.522735203136191 0)
(0.1175474237371918 -0.5270630913436491 0)
(0.1652372851427533 -0.5334063744424772 -3.150505019756654e-21)
(0.2140242612416362 -0.5421149795850614 -3.225286702850523e-21)
(0.2643532576829509 -0.5534868979295969 -3.746986361718512e-21)
(0.3165337191177895 -0.5677968421540246 -3.741079550043695e-21)
(0.3704012846552153 -0.584689318987229 0)
(0.4266982687459332 -0.6031874889125358 0)
(0.4860219658548608 -0.6218761067655816 -3.756968314008751e-21)
(0.5464598510807487 -0.6368475247376535 -4.1902053142016e-21)
(0.6123631014400003 -0.6494223633297944 0)
(0.6867243233017643 -0.6324229414769362 1.366881736304935e-20)
(0.6081549269402814 -0.5721973358128043 7.814655583927802e-20)
(0.6521750762171826 -0.7653403953141994 8.615068313028733e-20)
(0.9040018602891039 -0.7944850903460051 0)
(1.378531462570961 -0.5921260702328077 0)
(1.509175937219928 -0.4115260303761203 0)
(1.519918478751915 -0.2685837795311468 2.76692154808952e-20)
(1.600879738896221 -0.1148027625202991 7.1085341438404e-20)
(1.753267691437361 0.09364193529666325 4.229441272307234e-20)
(1.876095490735084 0.2219355935085777 0)
(1.93015878697602 0.3044949187742892 0)
(0.02499842029380916 -0.5710861271365124 0)
(0.06779406273486831 -0.573913840173971 0)
(0.1133183863864726 -0.5784362639858825 0)
(0.1588445567651094 -0.5852093678629804 0)
(0.2053649043566902 -0.5943502949609694 0)
(0.2532536274688938 -0.6058501139385968 -2.063533779786373e-21)
(0.3025461145929899 -0.6187140215471737 -2.110864591915398e-21)
(0.3535735926637921 -0.6325680376156227 0)
(0.4106214768747825 -0.6488638517626303 0)
(0.4785768620055955 -0.6645717709160966 -4.051537724167112e-21)
(0.5182975613336285 -0.6652857978399914 -3.082548082574549e-22)
(0.5187137579952188 -0.6809763181234051 0)
(0.1231437401002 -0.436605505883268 4.288796247260226e-20)
(0.3088568902368272 -0.6939501529521837 1.113749149498076e-19)
(0.5254216454339524 -1.003921236986768 1.887088913314865e-20)
(0.6681351341111167 -1.058502970430317 0)
(0.8428849056794894 -0.87901640774858 0)
(1.021814401050352 -0.5442249488559476 0)
(1.100869633793231 -0.3533107557141495 0)
(1.232425905039651 -0.2265180304544732 3.129810679630417e-20)
(1.427839159115126 -0.105874927681074 2.876026804685675e-20)
(1.69068602863034 0.07127424657497469 0)
(1.918645136272075 0.2621654961729007 0)
(0.02445405458566192 -0.6073970756215789 0)
(0.06562934988390749 -0.6093928688439453 0)
(0.1094170920332569 -0.6134926154015031 0)
(0.1539613043020554 -0.6199683770421491 0)
(0.2010989915579134 -0.629084438524921 0)
(0.2522636500173682 -0.6410461489594017 0)
(0.3077726823642029 -0.6528769970309305 0)
(0.3643288164677051 -0.6747818408672782 0)
(0.4494166032062573 -0.7224429227341143 0)
(0.4980784556953619 -0.7482622982739267 0)
(0.524159866759573 -0.6663188962176946 0)
(0.4989302865138482 -0.5307014663217334 0)
(0.5061156270515331 -0.2632641261499379 0)
(0.4522216960144497 -0.9653819087776038 0)
(0.5046399356909602 -1.143348185015942 0)
(0.5487886745909204 -1.153705113967618 0)
(0.5861334202622579 -0.936952082595452 0)
(0.6199649069346509 -0.606270190101671 0)
(0.7149045151829585 -0.4726656621735553 0)
(0.8667653842980116 -0.4164711583021105 0)
(1.057277118683354 -0.3617860222486992 0)
(1.298005709160916 -0.2365099907347644 0)
(1.637693453845785 0.004222555277898599 0)
(0.0342891055226714 -0.6563344213452909 2.167927721100714e-38)
(0.07999442707475275 -0.657643138573566 0)
(0.1306169531294125 -0.6673796876948401 0)
(0.1867282420267391 -0.683284524082055 0)
(0.2423953636103332 -0.7066347999712634 0)
(0.3023590929541606 -0.741393492614362 0)
(0.3750682193175534 -0.7510521327057949 0)
(0.4615221526700281 -0.7699039077467219 0)
(0.5409204941372857 -0.7886368448952035 0)
(0.5987751309445712 -0.7722914043541114 0)
(0.6443571037433331 -0.6974999644879891 0)
(0.6636885441387016 -0.5705938660931917 0)
(0.8170313856269144 -0.3744812568955531 0)
(0.7188172242608381 -0.7913623075319576 0)
(0.5546470629392546 -1.147857325282908 0)
(0.545325939884031 -1.138343225195713 0)
(0.4083101631560362 -0.8528618694341846 0)
(0.4079097376288143 -0.679210964265507 0)
(0.5036197759011274 -0.6234070158189667 0)
(0.6339906503457838 -0.6012337141050546 0)
(0.785872153029479 -0.5690977188061408 0)
(0.9745746905227484 -0.4817528967084669 0)