# Probe 0 (0.29 0.5 0.0073)
#                 Probe                       0
#                  Time
   0.001190476190476191       99994.58999074726
   0.002626050420168067       99899.67362982029
   0.004317977190876351       99748.59225740275
   0.006304152095620857       99644.59315522546
   0.008731699201419699       99576.40331852715
    0.01167943497274686       99525.52316226932
    0.01516312270249715       99487.55528016029
    0.01951773236468501        99454.1430686894
    0.02459811030390417       99417.24927656331
    0.03094858272792813        99363.6585814109
    0.03729905515195209         99298.744287472
    0.04364952757597605       99217.58318559172
                   0.05       99133.61887680291
    0.05714285714285715       99032.05980988746
    0.06428571428571429       98927.80225973554
    0.07023809523809524        98859.9839986666
     0.0761904761904762       98795.58220075315
    0.08214285714285716       98730.55817804513
     0.0880952380952381       98662.98738874588
    0.09206349206349207       98623.62031026017
    0.09603174603174604        98588.9240150133
                    0.1       98549.78910771206
     0.1035714285714286       98516.83311962314
     0.1066666666666667       98486.31245658796
     0.1095555555555556       98463.23147886383
     0.1120833333333333       98442.97789305376
            0.114453125       98419.01055360047
        0.1166748046875       98398.26395665537
     0.1186351102941177       98383.18185549004
     0.1204801038062284       98369.17988324219
      0.122216568288215       98355.94013312679
     0.1238508878006729       98344.60487526824
     0.1253890708712216       98331.90392748396
     0.1268367725846791       98320.33300032746
     0.1281993153738157       98311.52115247905
     0.1295618581629522       98302.80950304361
     0.1308392420277677       98294.06309136353
     0.1321166258925832       98285.00585485726
     0.1333940097573987       98275.62132399666
     0.1346713936222141       98265.61637164812
      0.136064903292922        98254.5061131886
     0.1376132473714862       98243.58306132841
     0.1393827834612739       98232.78683416318
     0.1415062267690191       98220.36366129105
     0.1436296700767643       98203.86665619734
     0.1457531133845096       98185.21825626623
     0.1478765566922548       98165.80575556483
                   0.15       98146.33749803889
     0.1522727272727273       98128.21647926707
     0.1546590909090909       98110.91696364518
     0.1571780303030303       98092.39590623754
     0.1596969696969697       98072.23578441932
     0.1622159090909091       98044.87981858577
     0.1649147727272727       98014.87167702522
     0.1676136363636364       97988.59408629828
              0.1703125       97967.41223691292
     0.1730113636363636       97940.22831857402
     0.1757102272727273       97909.44694145849
     0.1781392045454546       97881.77152667657
     0.1805681818181818       97853.95617420788
     0.1829971590909091       97817.12864296495
     0.1854261363636364       97775.74721806652
     0.1878551136363636       97741.05586948275
     0.1902840909090909       97709.19054848912
     0.1927130681818182       97672.46465428332
     0.1951420454545455       97636.40717744957
     0.1975710227272727       97605.58683333338
                    0.2       97572.06526753605
                 0.2025       97535.47759317822
     0.2051388888888889        97498.8197862438
     0.2077777777777778        97465.1341471317
     0.2104166666666667       97431.83811538237
     0.2130555555555556       97397.51600366768
     0.2156944444444444       97346.35137057405
     0.2183333333333333       97298.10315657163
     0.2209722222222222       97262.04153942034
     0.2236111111111111       97225.94248529762
                0.22625       97182.29816956197
     0.2288888888888889       97143.51074007919
     0.2315277777777777       97103.37861140247
     0.2341666666666666       97058.23637739486
     0.2368055555555555        97008.0173271979
     0.2394444444444444       96969.80782315448
     0.2420833333333333       96930.67443196273
     0.2447222222222222       96886.66457999636
     0.2473611111111111       96849.79750029428
                   0.25       96813.87249337982
                 0.2525       96775.33986581975
                  0.255       96731.73237582321
                 0.2575       96693.28809919117
                   0.26       96661.19279294719
                 0.2625       96622.39396957515
                  0.265       96584.60585124856
                 0.2675       96543.11591328263
                   0.27       96505.20294861004
                 0.2725       96470.23060099279
                  0.275       96434.19144713394
                 0.2775       96395.15015921635
                   0.28       96354.07530373207
                 0.2825        96317.3412723494
                  0.285       96282.12752595462
                 0.2875       96249.89929468729
                   0.29       96208.60342992881
                 0.2925       96171.42397741997
                  0.295       96137.84334537608
                 0.2975       96091.32279111369
                    0.3        96047.5099173488
     0.3027777777777778       96008.48528610691
     0.3055555555555556       95969.35116268083
     0.3083333333333333       95918.08417136206
     0.3111111111111111       95871.28243340069
     0.3137037037037037       95838.50521091957
     0.3161234567901234       95805.48926238687
     0.3187293447293447       95751.11192510673
     0.3211347797501644       95712.71021603429
     0.3231965811965812       95687.02866092302
      0.325258382642998       95653.01923098331
     0.3273201840894148       95607.21357494633
     0.3292101687486302       95566.98348463704
     0.3309426546862444       95542.55703922182
      0.332530766795724       95519.22017339636
     0.3341188789052036       95488.05197267787
     0.3357069910146833        95455.7154142362
     0.3371362919132149       95423.36595383284
     0.3384226627218934       95398.43070212261
     0.3395803964497041       95380.99685885366
     0.3407381301775147       95362.18326557771
     0.3417672268244575        95340.3157975051
     0.3427963234714003       95314.17104741294
     0.3438254201183432         95287.075421587
      0.344854516765286       95261.96507439006
      0.345712097304405       95244.60236831855
      0.346569677843524       95230.11496430748
      0.347427258382643       95214.79157678779
      0.348284838921762       95196.77565694743
      0.349142419460881       95177.11807602861
                   0.35       95154.23717623921
     0.3506493506493507       95131.08835686681
     0.3513347763347763         95096.488355989
     0.3520611229566453       95049.81663908916
      0.352822057512889       94996.34407634572
     0.3535954664061204       94942.57674570802
     0.3543819839246607       94889.89052980146
     0.3551822999961579       94839.16545581543
      0.355982616067655       94793.00338415464
     0.3567977528071429       94751.99205803624
     0.3576285652531593        94717.7286451915
     0.3584759939480961       94685.08584854739
     0.3593410774075108       94653.72902754422
     0.3602446090206772       94632.53303003138
     0.3611481406338437        94626.4899214382
     0.3620957469598475       94633.54333951193
     0.3630433532858513       94651.96694835863
     0.3640421815754229        94680.7342976699
     0.3650695478161251       94716.03362427971
     0.3661280463671516       94754.20884569392
     0.3672206900327274       94792.42658280232
     0.3683510110660816       94829.10700850739
     0.3694813320994359       94861.74890097239
     0.3706551270186884       94889.05914860063
     0.3718778300595764       94908.00872526276
     0.3731005331004644       94915.94046206491
     0.3743814600956804       94910.72518249083
     0.3757298043011709       94889.64877093627
     0.3770781485066614       94856.50646537676
      0.378510764224995       94813.12797586236
     0.3799433799433287       94764.86493646289
     0.3813759956616624       94714.86983069571
     0.3829279960231905       94663.17592279646
     0.3844799963847186       94616.74140557322
     0.3860319967462468       94578.15847042398
     0.3875839971077749       94549.30196091208
     0.3893577118066642       94528.08981272067
     0.3911314265055535       94517.94378852683
     0.3929051412044429        94518.4077814792
     0.3946788559033322        94525.6484741982
     0.3964525706022214       94535.86495561493
     0.3982262853011107        94546.8718805149
                    0.4       94554.77935752308
