# Probe 0 (0.29 0.5 0.0073)
#                 Probe                       0
#                  Time
   0.001190476190476191                     350
   0.002626050420168067       349.9991224982641
   0.004317977190876351       349.8347334141753
   0.006304152095620857       349.6632178727168
   0.008731699201419699       349.5687247101628
    0.01167943497274686       349.4983468165863
    0.01516312270249715       349.4472262835515
    0.01951773236468501       349.4061003449969
    0.02459811030390417       349.3705359953403
    0.03094858272792813        349.323569750815
    0.03729905515195209       349.2670061372324
    0.04364952757597605       349.1983203949359
                   0.05       349.1115910414007
    0.05714285714285715       349.0176537723449
    0.06428571428571429       348.9121041359967
    0.07023809523809524        348.824756972591
     0.0761904761904762       348.7640078598354
    0.08214285714285716       348.6973890805584
     0.0880952380952381       348.6321977720878
    0.09206349206349207       348.5859255387267
    0.09603174603174604       348.5487891765163
                    0.1       348.5145845336355
     0.1035714285714286       348.4770819979857
     0.1066666666666667       348.4496764522002
     0.1095555555555556       348.4195992819581
     0.1120833333333333       348.4015445691344
            0.114453125       348.3814380216627
        0.1166748046875       348.3571672498749
     0.1186351102941177       348.3398136860994
     0.1204801038062284       348.3262454733443
      0.122216568288215       348.3126893749922
     0.1238508878006729       348.3001432497733
     0.1253890708712216       348.2897546446854
     0.1268367725846791       348.2767300560292
     0.1281993153738157       348.2662040897438
     0.1295618581629522       348.2579293107139
     0.1308392420277677       348.2494596183341
     0.1321166258925832       348.2404533287664
     0.1333940097573987       348.2312204375275
     0.1346713936222141       348.2216133545037
      0.136064903292922       348.2103355712102
     0.1376132473714862       348.1978496728027
     0.1393827834612739       348.1858615401052
     0.1415062267690191       348.1732494351263
     0.1436296700767643       348.1606809745993
     0.1457531133845096       348.1423159381645
     0.1478765566922548       348.1232157643307
                   0.15       348.1033222722384
     0.1522727272727273       348.0822808973077
     0.1546590909090909       348.0641242058967
     0.1571780303030303       348.0458805440184
     0.1596969696969697       348.0268950254277
     0.1622159090909091       348.0058759691393
     0.1649147727272727       347.9732756265664
     0.1676136363636364        347.943707467746
              0.1703125       347.9182163073174
     0.1730113636363636       347.8983264898836
     0.1757102272727273        347.867662043634
     0.1781392045454546       347.8393354835603
     0.1805681818181818       347.8113307387919
     0.1829971590909091       347.7829902205033
     0.1854261363636364       347.7419581125523
     0.1878551136363636       347.6995092407282
     0.1902840909090909       347.6671315741951
     0.1927130681818182       347.6347345713495
     0.1951420454545455       347.5954140921851
     0.1975710227272727       347.5598015533555
                    0.2        347.530152772272
                 0.2025       347.4932104231353
     0.2051388888888889       347.4537777214758
     0.2077777777777778       347.4173024095742
     0.2104166666666667       347.3838688993231
     0.2130555555555556       347.3497612737498
     0.2156944444444444        347.314448622524
     0.2183333333333333       347.2555666624177
     0.2209722222222222       347.2102505974963
     0.2236111111111111       347.1768884800266
                0.22625       347.1386793187767
     0.2288888888888889       347.0916112035833
     0.2315277777777777       347.0550095348302
     0.2341666666666666       347.0122830620987
     0.2368055555555555       346.9648253145116
     0.2394444444444444       346.9119723292425
     0.2420833333333333       346.8784408785804
     0.2447222222222222       346.8358442550517
     0.2473611111111111       346.7898757951618
                   0.25       346.7554649795932
                 0.2525        346.719751149767
                  0.255       346.6788280398875
                 0.2575       346.6326959133082
                   0.26       346.5960307819529
                 0.2625       346.5646724186365
                  0.265       346.5215640906878
                 0.2675       346.4845908276981
                   0.27        346.439832773665
                 0.2725       346.4033067605122
                  0.275       346.3676988923529
                 0.2775       346.3301767708766
                   0.28       346.2890939463303
                 0.2825       346.2464940598859
                  0.285        346.210723880926
                 0.2875        346.174398061387
                   0.29       346.1425749039092
                 0.2925       346.0958925985287
                  0.295       346.0610569106217
                 0.2975       346.0266521815532
                    0.3       345.9734280551778
     0.3027777777777778       345.9269581862711
     0.3055555555555556       345.8893172200886
     0.3083333333333333       345.8479765483128
     0.3111111111111111       345.7906038546469
     0.3137037037037037       345.7490236236795
     0.3161234567901234       345.7204139220034
     0.3187293447293447       345.6814353137497
     0.3211347797501644        345.623366567499
     0.3231965811965812       345.5957322892983
      0.325258382642998       345.5696879417129
     0.3273201840894148       345.5309715558975
     0.3292101687486302       345.4844808071207
     0.3309426546862444        345.448204246831
      0.332530766795724       345.4291168707462
     0.3341188789052036        345.402998892635
     0.3357069910146833       345.3683577432482
     0.3371362919132149       345.3387111380601
     0.3384226627218934       345.3072420236961
     0.3395803964497041       345.2860743411291
     0.3407381301775147       345.2692897542224
     0.3417672268244575       345.2510400899549
     0.3427963234714003       345.2266730797896
     0.3438254201183432       345.1985475968878
      0.344854516765286       345.1705338314528
      0.345712097304405       345.1495395821985
      0.346569677843524         345.13276269729
      0.347427258382643       345.1184653791396
      0.348284838921762       345.1019672842879
      0.349142419460881       345.0824455896429
                   0.35       345.0617469110985
     0.3506493506493507       345.0428874952757
     0.3513347763347763       345.0154078754734
     0.3520611229566453       344.9738641797635
      0.352822057512889       344.9203132500691
     0.3535954664061204       344.8631673482118
     0.3543819839246607       344.8069769464962
     0.3551822999961579       344.7519299814938
      0.355982616067655       344.7001984710606
     0.3567977528071429        344.652892453301
     0.3576285652531593       344.6113639769313
     0.3584759939480961       344.5774443449812
     0.3593410774075108       344.5427912287122
     0.3602446090206772       344.5095910191828
     0.3611481406338437       344.4920031601399
     0.3620957469598475       344.4901414542377
     0.3630433532858513       344.5011471215969
     0.3640421815754229       344.5247712032599
     0.3650695478161251       344.5581129733497
     0.3661280463671516       344.5972878810489
     0.3672206900327274       344.6384319265713
     0.3683510110660816       344.6788973966482
     0.3694813320994359       344.7160343607064
     0.3706551270186884       344.7498723255454
     0.3718778300595764       344.7771077777882
     0.3731005331004644       344.7937402988476
     0.3743814600956804       344.7988347065863
     0.3757298043011709       344.7887021892796
     0.3770781485066614       344.7621145254449
      0.378510764224995       344.7222139784976
     0.3799433799433287       344.6750852186977
     0.3813759956616624        344.623719382906
     0.3829279960231905       344.5671494009469
     0.3844799963847186       344.5145105445052
     0.3860319967462468       344.4679321943411
     0.3875839971077749       344.4303474427875
     0.3893577118066642       344.3994638009248
     0.3911314265055535       344.3808908026577
     0.3929051412044429       344.3735183133683
     0.3946788559033322       344.3771275256928
     0.3964525706022214       344.3862205187241
     0.3982262853011107       344.3974564190178
                    0.4       344.4089845315106
