# Probe 0 (0.29 0.5 0.0073)
#                 Probe                       0
#                  Time
   0.001190476190476191                       (-0.005169783484238679 0.001356655728924225 0)
   0.002626050420168067                       (-0.0463826465089844 -0.06857216143448613 0)
   0.004317977190876351                       (-0.03006870812538558 -0.06529355297105374 0)
   0.006304152095620857                       (-0.02109436290232767 -0.02579111702406327 0)
   0.008731699201419699                       (-0.03289439192774654 -0.01251998800202159 0)
    0.01167943497274686                       (-0.0383783767175545 -0.003199972973666362 0)
    0.01516312270249715                       (-0.04876406937356222 0.003635730263755048 0)
    0.01951773236468501                       (-0.06207760089125191 0.008901210659059033 0)
    0.02459811030390417                       (-0.07806886529995816 0.01261272849418541 0)
    0.03094858272792813                       (-0.09890724915758001 0.01654813187222853 0)
    0.03729905515195209                       (-0.1175167880674186 0.01960205335183409 0)
    0.04364952757597605                       (-0.136994244262591 0.02156013282207243 0)
                   0.05                       (-0.1528110911618639 0.02567837166805194 0)
    0.05714285714285715                       (-0.1715062070145037 0.02834089951319708 0)
    0.06428571428571429                       (-0.1881165674927144 0.0314451998185318 0)
    0.07023809523809524                       (-0.1924069282106176 0.03557181236557687 0)
     0.0761904761904762                       (-0.2061419554101333 0.03704384225305491 0)
    0.08214285714285716                       (-0.2195034140627332 0.03971910098061296 0)
     0.0880952380952381                       (-0.232545323675905 0.04123613867283006 0)
    0.09206349206349207                       (-0.2288334945186988 0.04185411333849966 0)
    0.09603174603174604                       (-0.2415767776214982 0.04480791714074697 0)
                    0.1                       (-0.2480801876918879 0.04429649122978736 0)
     0.1035714285714286                       (-0.2536153522238372 0.04629555387818518 0)
     0.1066666666666667                       (-0.2538912106403666 0.04496464338527807 0)
     0.1095555555555556                       (-0.255511058707959 0.04723456693319918 0)
     0.1120833333333333                       (-0.2603271797521974 0.04710452056559299 0)
            0.114453125                       (-0.2638651660091308 0.04557529550419124 0)
        0.1166748046875                       (-0.2663905497356236 0.0473851495149967 0)
     0.1186351102941177                       (-0.2676932086542163 0.04857880259041897 0)
     0.1204801038062284                       (-0.2692690908836644 0.04834753910671027 0)
      0.122216568288215                       (-0.2697831019399102 0.04829355711838907 0)
     0.1238508878006729                       (-0.2677337509912632 0.04827310835821743 0)
     0.1253890708712216                       (-0.2700514761972805 0.04703051964364145 0)
     0.1268367725846791                       (-0.2720189447496669 0.04804872749091383 0)
     0.1281993153738157                       (-0.2724224143591469 0.04928808265396083 0)
     0.1295618581629522                       (-0.2736811390805137 0.04905780932334501 0)
     0.1308392420277677                       (-0.2744373986360402 0.04874390781486565 0)
     0.1321166258925832                       (-0.2746459072212556 0.04855771065095533 0)
     0.1333940097573987                       (-0.2753015876503896 0.04834404350208131 0)
     0.1346713936222141                       (-0.276057338859919 0.04790764523698303 0)
      0.136064903292922                       (-0.2761668930572885 0.04774577275814552 0)
     0.1376132473714862                       (-0.2750889849211158 0.04835929658819577 0)
     0.1393827834612739                       (-0.2730025749629713 0.04850421384949384 0)
     0.1415062267690191                       (-0.2727201762331951 0.04852743355225617 0)
     0.1436296700767643                       (-0.2725799759760534 0.04675350504204671 0)
     0.1457531133845096                       (-0.2718438403324688 0.04642254205771915 0)
     0.1478765566922548                       (-0.2700747369178876 0.04599272261446537 0)
                   0.15                       (-0.2678881616347634 0.04585722177454043 0)
     0.1522727272727273                       (-0.2664812875555117 0.04676135777517323 0)
     0.1546590909090909                       (-0.2630924689426412 0.04638972495663257 0)
     0.1571780303030303                       (-0.261554700600677 0.0458574093182979 0)
     0.1596969696969697                       (-0.2604142679345391 0.04498158411318725 0)
     0.1622159090909091                       (-0.2579599135903552 0.04195733031504634 0)
     0.1649147727272727                       (-0.2569276294521044 0.04215128955184355 0)
     0.1676136363636364                       (-0.2565040950645103 0.04243257749150395 0)
              0.1703125                       (-0.2558751958931229 0.04278846135396396 0)
     0.1730113636363636                       (-0.2550141064247818 0.03926173077705106 0)
     0.1757102272727273                       (-0.2551048732780381 0.03833994758537212 0)
     0.1781392045454546                       (-0.2576818906116445 0.03750281286044524 0)
     0.1805681818181818                       (-0.2600557929520975 0.03637879488413514 0)
     0.1829971590909091                       (-0.2581653708771576 0.03225306234283013 0)
     0.1854261363636364                       (-0.2614852096820913 0.03046064934239817 0)
     0.1878551136363636                       (-0.2644734542277318 0.03195950991954125 0)
     0.1902840909090909                       (-0.268455696970832 0.03085584587325798 0)
     0.1927130681818182                       (-0.270791450196623 0.02768498742780428 0)
     0.1951420454545455                       (-0.2750623625407261 0.02737607275636969 0)
     0.1975710227272727                       (-0.2803042510863642 0.02765356977902557 0)
                    0.2                       (-0.2816157870392041 0.02460736115567151 0)
                 0.2025                       (-0.2868815927475507 0.0225922782215524 0)
     0.2051388888888889                       (-0.2903573763000402 0.02128942742348866 0)
     0.2077777777777778                       (-0.2972867680867577 0.02036234760032374 0)
     0.2104166666666667                       (-0.3091021100922126 0.01743100232141716 0)
     0.2130555555555556                       (-0.3169681896326704 0.01496660855516429 0)
     0.2156944444444444                       (-0.3165107491941166 0.00739700026983533 0)
     0.2183333333333333                       (-0.3296798265845451 0.007783262133773722 0)
     0.2209722222222222                       (-0.3459635191679734 0.007386173591035553 0)
     0.2236111111111111                       (-0.3493054929926885 0.003732515862432927 0)
                0.22625                       (-0.3580993053714994 -0.001611316449073099 0)
     0.2288888888888889                       (-0.3745493654002241 -0.002622670795271423 0)
     0.2315277777777777                       (-0.3853995643672705 -0.007778382684677163 0)
     0.2341666666666666                       (-0.3912941878719318 -0.01168758075668754 0)
     0.2368055555555555                       (-0.4013923956447339 -0.01682037978184873 0)
     0.2394444444444444                       (-0.4220159475866743 -0.01660020906293706 0)
     0.2420833333333333                       (-0.4329033985625012 -0.02352107584005701 0)
     0.2447222222222222                       (-0.4382625364647187 -0.02765839008302462 0)
     0.2473611111111111                       (-0.4560603192771664 -0.02955102690608704 0)
                   0.25                       (-0.474122586500302 -0.03626575832082337 0)
                 0.2525                       (-0.4803565085859171 -0.04093883723122452 0)
                  0.255                       (-0.4898949557936284 -0.04725522104406107 0)
                 0.2575                       (-0.5066853685185431 -0.04996143790986401 0)
                   0.26                       (-0.5196199258891534 -0.05327714107526989 0)
                 0.2625                       (-0.5254175418120575 -0.06110017295235369 0)
                  0.265                       (-0.5356339968541122 -0.06417638465110409 0)
                 0.2675                       (-0.5464871738775422 -0.07216802707237288 0)
                   0.27                       (-0.5615577268426141 -0.07568658065908876 0)
                 0.2725                       (-0.5710764069406293 -0.07977991006484089 0)
                  0.275                       (-0.5825103562496488 -0.08676687188104328 0)
                 0.2775                       (-0.5887395206301709 -0.09169728066191166 0)
                   0.28                       (-0.5975535616299581 -0.09778937299588197 0)
                 0.2825                       (-0.6160118907187839 -0.1034915487352524 0)
                  0.285                       (-0.6227186012546433 -0.1084471794121719 0)
                 0.2875                       (-0.6341510763447716 -0.1136874815539793 0)
                   0.29                       (-0.6330067608166761 -0.1213302834113519 0)
                 0.2925                       (-0.6484853724295345 -0.1249062320825424 0)
                  0.295                       (-0.6611923184125237 -0.1312150524679509 0)
                 0.2975                       (-0.6510979249943531 -0.1374950799936954 0)
                    0.3                       (-0.6667197601213477 -0.1421358808983395 0)
     0.3027777777777778                       (-0.689173736689856 -0.1496782487554461 0)
     0.3055555555555556                       (-0.6940194393935003 -0.1555707683164634 0)
     0.3083333333333333                       (-0.685431097680965 -0.1615108725176805 0)
     0.3111111111111111                       (-0.7035570869601684 -0.1679692418957108 0)
     0.3137037037037037                       (-0.7207440611454237 -0.1735113399812442 0)
     0.3161234567901234                       (-0.7182127371959381 -0.1781992760420411 0)
     0.3187293447293447                       (-0.7065962026001913 -0.1863156330286648 0)
     0.3211347797501644                       (-0.7357800179057927 -0.1909554417905838 0)
     0.3231965811965812                       (-0.7475645358729611 -0.1959875784072335 0)
      0.325258382642998                       (-0.7379410421041225 -0.2014204971359648 0)
     0.3273201840894148                       (-0.7303435879819951 -0.2077084398025233 0)
     0.3292101687486302                       (-0.7439406787359887 -0.2127766596161783 0)
     0.3309426546862444                       (-0.7678184706637666 -0.2158893639881684 0)
      0.332530766795724                       (-0.767152515963489 -0.2211871438920975 0)
     0.3341188789052036                       (-0.7568392986207518 -0.2261128568640806 0)
     0.3357069910146833                       (-0.761435308647617 -0.2305188786859017 0)
     0.3371362919132149                       (-0.7613134238045463 -0.2358151129310248 0)
     0.3384226627218934                       (-0.7744240525910915 -0.239163345866318 0)
     0.3395803964497041                       (-0.7900111418255853 -0.2431948904029765 0)
     0.3407381301775147                       (-0.7904748408857242 -0.2479932345436833 0)
     0.3417672268244575                       (-0.7766199866866481 -0.2512031590279215 0)
     0.3427963234714003                       (-0.7655870624565217 -0.2546193288827698 0)
     0.3438254201183432                       (-0.7686346104447158 -0.2588662533433992 0)
      0.344854516765286                       (-0.7815143901055434 -0.2633756770734451 0)
      0.345712097304405                       (-0.7973389637572796 -0.2672388736121969 0)
      0.346569677843524                       (-0.8109789291155772 -0.2714959871632983 0)
      0.347427258382643                       (-0.8124239867764899 -0.2761335882844121 0)
      0.348284838921762                       (-0.8056107028092249 -0.2806813222776426 0)
      0.349142419460881                       (-0.8016644129854626 -0.2850787170707246 0)
                   0.35                       (-0.7967873216716015 -0.2903801376618874 0)
     0.3506493506493507                       (-0.7816476869666906 -0.2952362439587231 0)
     0.3513347763347763                       (-0.7467001384927082 -0.2997939080222591 0)
     0.3520611229566453                       (-0.7043302200536667 -0.3021957009366245 0)
      0.352822057512889                       (-0.679080028980282 -0.3027564071091277 0)
     0.3535954664061204                       (-0.6772009522654042 -0.3028034791956622 0)
     0.3543819839246607                       (-0.6832384716718339 -0.3032475145610477 0)
     0.3551822999961579                       (-0.6858400967441355 -0.3028392858227894 0)
      0.355982616067655                       (-0.6859302305353241 -0.3010681684705999 0)
     0.3567977528071429                       (-0.6878412872826243 -0.298937159236634 0)
     0.3576285652531593                       (-0.6945935614922956 -0.2966568195776063 0)
     0.3584759939480961                       (-0.6870511412704019 -0.2950143192864644 0)
     0.3593410774075108                       (-0.6672744183535233 -0.2891760628340431 0)
     0.3602446090206772                       (-0.6632853276653844 -0.2787934630227517 0)
     0.3611481406338437                       (-0.674120385447856 -0.2690952747755123 0)
     0.3620957469598475                       (-0.6810032101479668 -0.260316866924767 0)
     0.3630433532858513                       (-0.6809625722418023 -0.2527043193948315 0)
     0.3640421815754229                       (-0.6772990499344318 -0.2471059509109829 0)
     0.3650695478161251                       (-0.6725149659074408 -0.2446812393346771 0)
     0.3661280463671516                       (-0.6673227897415283 -0.2456693838815296 0)
     0.3672206900327274                       (-0.6616743427750574 -0.2491274386479683 0)
     0.3683510110660816                       (-0.6565904839767248 -0.2539187000520935 0)
     0.3694813320994359                       (-0.6522196188765295 -0.2596819206724605 0)
     0.3706551270186884                       (-0.6469678829641798 -0.2672986382483082 0)
     0.3718778300595764                       (-0.6401123356918146 -0.2763834627072438 0)
     0.3731005331004644                       (-0.6319460605029592 -0.2857683047068618 0)
     0.3743814600956804                       (-0.6221851360611095 -0.2962203057577619 0)
     0.3757298043011709                       (-0.6123574963678812 -0.3073621141407411 0)
     0.3770781485066614                       (-0.6043168274272001 -0.3155316951697054 0)
      0.378510764224995                       (-0.5977463898563122 -0.3212652791945265 0)
     0.3799433799433287                       (-0.5925268155621218 -0.3254520813220219 0)
     0.3813759956616624                       (-0.5888589898738911 -0.3280120254919265 0)
     0.3829279960231905                       (-0.5868189285142481 -0.3284940501954691 0)
     0.3844799963847186                       (-0.584890168210267 -0.3276355577465424 0)
     0.3860319967462468                       (-0.5838815174689987 -0.3254457417707668 0)
     0.3875839971077749                       (-0.5836302051554582 -0.3225466196140732 0)
     0.3893577118066642                       (-0.5827564423496904 -0.3198164191416206 0)
     0.3911314265055535                       (-0.5813928447979041 -0.3174753475682484 0)
     0.3929051412044429                       (-0.5804778511538619 -0.3153702537086486 0)
     0.3946788559033322                       (-0.5767267764747347 -0.3149552449340151 0)
     0.3964525706022214                       (-0.5726526735395878 -0.3165090131201954 0)
     0.3982262853011107                       (-0.5705233941062196 -0.319748685887998 0)
                    0.4                       (-0.5661799678910819 -0.3247237747064045 0)
