# p  POINT_DATA 465
# x y z  p
0.1904347826086957 0.1107640354939543 0 96882.61694460534
0.1899070772850723 0.1112781474223466 0.01399313887783305 96874.77953423322
0.1899070772850723 0.1112781474223466 0.0006068611221669496 96874.77953423322
0.1904347826086957 0.1107640354939543 0.01340498062633016 96882.61694460535
0.1904347826086957 0.1107640354939543 0.0146 96882.61694460534
0.1876267675605755 0.1118086076190476 0.0146 96877.00463178419
0.1876267675605755 0.1118086076190476 0.01137078269466176 96877.00463178422
0.1876267675605755 0.1118086076190476 0 96877.00463178419
0.1895118345113836 0.1108808412931685 0 96884.94623959318
0.1895118345113836 0.1108808412931685 0.0146 96884.94623959319
0.2031304347826087 0.1076323770093909 0 96893.77324029437
0.2006745119201044 0.109339863669714 0.01177568870812012 96857.97800158641
0.2006745119201044 0.109339863669714 0.00282431129187988 96857.97800158641
0.2031304347826087 0.1076323770093909 0.009822276789161654 96893.77324029437
0.2031304347826087 0.1076323770093909 0.0146 96893.77324029437
0.1912319771530882 0.1110072513395169 0.01368322627394859 96870.31358917101
0.1912319771530882 0.1110072513395169 0.000916773726051408 96870.31358917098
0.1995572714594399 0.1082167906818255 0 96898.16223373981
0.1995572714594399 0.1082167906818255 0.0146 96898.16223373981
0.2158260869565218 0.1054942909365529 0 96902.49410282611
0.2092066658811693 0.1073435296918082 0.007195888587781536 96850.27748465425
0.2158260869565218 0.1054942909365529 0.007376247244397532 96902.49410282611
0.2158260869565218 0.1054942909365529 0.0146 96902.49410282611
0.2104583857299733 0.1064128844360483 0 96902.32643213545
0.2104583857299733 0.1064128844360483 0.0146 96902.32643213544
0.2285217391304347 0.1038433103048585 0 96909.76909340359
0.2285217391304347 0.1038433103048585 0.005487479783508029 96909.76909340359
0.2223526565810539 0.103857473293936 0.007368518356070643 96873.19324542231
0.2285217391304348 0.1038433103048585 0.0146 96909.76909340359
0.2215331361916421 0.1047835208450083 0 96908.18234624749
0.2215331361916421 0.1047835208450083 0.0146 96908.18234624749
0.2412173913043479 0.1034444643553755 0 96909.28655047496
0.2412173913043479 0.1034444643553755 0.005031188996790422 96909.28655047499
0.2349355010645951 0.1023931787007782 0.007325275408094779 96893.54584321822
0.2412173913043479 0.1034444643553754 0.0146 96909.28655047499
0.2331385506247788 0.1036875915440642 0 96910.89453063834
0.2331385506247788 0.1036875915440642 0.0146 96910.89453063832
0.2539130434782608 0.1042490374608021 0 96901.17669223674
0.2539130434782608 0.1042490374608021 0.005951642860550917 96901.17669223674
0.247428951635534 0.1027310319957728 0.007247764793621366 96886.30178714053
0.2539130434782608 0.1042490374608021 0.0146 96901.17669223671
0.2458629499871198 0.1037164888065049 0 96907.18607790247
0.2458629499871198 0.1037164888065049 0.0146 96907.18607790249
0.2666086956521739 0.1058245790210698 0 96887.12688988773
0.2666086956521739 0.1058245790210698 0.007754105939272055 96887.12688988773
0.2601451607990381 0.1043367656030613 0.007255644972964648 96861.99370861003
0.2666086956521739 0.1058245790210698 0.0146 96887.1268898877
0.2598378828079211 0.1050024479075513 0 96895.51715694854
0.2598378828079212 0.1050024479075513 0.0146 96895.51715694852
0.2793043478260869 0.1083735597648826 0 96865.09322017894
0.2733910216602188 0.1077902123046985 0.007466558303083863 96845.54607811442
0.2793043478260869 0.1083735597648825 0.01067021034105827 96865.09322017895
0.2793043478260869 0.1083735597648826 0.0146 96865.09322017895
0.2751390993273093 0.1076216145396548 0 96873.63605251313
0.2751390993273093 0.1076216145396548 0.0146 96873.63605251312
0.28122810836347 0.1098748041355828 0.01238767538200937 96843.44985157241
0.28122810836347 0.1098748041355828 0.002212324617990633 96843.4498515724
0.2919600823320855 0.1117684815618982 0.01455409468189841 96836.24388326777
0.2919600823320856 0.1117684815618982 4.59053181015944e-05 96836.24388326776
0.292 0.11175460861325 0 96836.41113823677
0.292 0.11175460861325 0.01453822364532153 96836.41113823678
0.292 0.11175460861325 0.0146 96836.41113823677
0.2919323169131277 0.1117405711942318 0 96836.66562240481
0.2919323169131277 0.1117405711942318 0.0146 96836.66562240482
0.1523478260869565 0.1238955297016043 0 96868.10199978611
0.152019658019492 0.12424065588181 0.01422260672241592 96864.33023596357
0.152019658019492 0.12424065588181 0.000377393277584082 96864.33023596356
0.1523478260869565 0.1238955297016043 0.0138277728360822 96868.10199978613
0.1523478260869565 0.1238955297016043 0.0146 96868.10199978614
0.1507409897152156 0.1245705371428571 0.0146 96865.33128393661
0.1507409897152156 0.1245705371428571 0.01275213817249801 96865.33128393661
0.1507409897152156 0.1245705371428571 0 96865.33128393658
0.1517588016736453 0.1239784377416206 0 96869.6980703509
0.1517588016736453 0.1239784377416206 0.0146 96869.69807035092
0.1650434782608696 0.1194200847893128 0 96882.28616842961
0.1622121296146596 0.1217244075084527 0.01134394905685858 96853.70460663078
0.1622121296146596 0.1217244075084527 0.003256050943141413 96853.70460663078
0.1650434782608696 0.1194200847893128 0.00870774019544187 96882.28616842961
0.1650434782608696 0.1194200847893128 0.0146 96882.28616842962
0.1528950787968415 0.12402042751323 0.01397065938363227 96861.972846056
0.1528950787968415 0.12402042751323 0.0006293406163677273 96861.97284605597
0.160945674598826 0.1204513409943626 0 96889.26767828235
0.1609456745988261 0.1204513409943626 0.0146 96889.26767828235
0.1777391304347826 0.1153315900868355 0 96884.88736049974
0.1777391304347826 0.1153315900868355 0.004030389286646778 96884.88736049974
0.1718288270194384 0.116758515545872 0.00746771702411806 96863.61108563251
0.1777391304347826 0.1153315900868355 0.0146 96884.88736049972
0.1709137139148227 0.1177094886984647 0 96892.30944311542
0.1709137139148227 0.1177094886984647 0.0146 96892.30944311543
0.1805800275802909 0.1146643356004637 0 96887.31031183607
0.1795833360990005 0.1136624409150258 0.002120836513850551 96884.61698327019
0.1805800275802909 0.1146643356004637 0.0146 96887.31031183605
0.1795833360990005 0.1136624409150258 0.01247916348614945 96884.61698327017
0.1142608695652174 0.1366955007496477 0 96862.32540196809
0.1139406233386759 0.1370105486023245 0.01423171683947727 96859.21773458969
0.1139406233386759 0.1370105486023245 0.0003682831605227246 96859.21773458968
0.1142608695652174 0.1366955007496477 0.01387129339093065 96862.32540196809
0.1142608695652174 0.1366955007496477 0.0146 96862.32540196809
0.1122750164061728 0.1373324666666667 0.0146 96860.22733731401
0.1122750164061728 0.1373324666666667 0.01231626886709874 96860.22733731401
0.1122750164061728 0.1373324666666667 0 96860.22733731402
0.1136953760983048 0.1367640210545742 0 96863.382348813
0.1136953760983048 0.1367640210545742 0.0146 96863.38234881299
0.1269565217391304 0.1327949886953032 0 96871.75802773249
0.1244671110291514 0.1348300600473479 0.01173717768352416 96852.08593265533
0.1244671110291514 0.1348300600473479 0.002862822316475852 96852.08593265533
0.1269565217391304 0.1327949886953032 0.009408999825746528 96871.75802773249
0.1269565217391304 0.1327949886953032 0.0146 96871.7580277325
0.1147415661415527 0.1368492606252998 0.0140471989372144 96857.88706264469
0.1147415661415527 0.1368492606252998 0.0005528010627855967 96857.8870626447
0.123241358185344 0.1335979081900041 0 96877.15815116382
0.1232413581853441 0.133597908190004 0.0146 96877.15815116382
0.1396521739130435 0.1288554299666162 0 96872.31031186174
0.1396521739130435 0.1288554299666162 0.004902035786216135 96872.31031186173
0.1333178842676677 0.1309092015117508 0.007305188969272597 96847.49673895237
0.1396521739130435 0.1288554299666162 0.0146 96872.31031186173
0.1332696364119917 0.1309166092805558 0 96879.82698505245
0.1332696364119917 0.1309166092805558 0.0146 96879.82698505244
0.1430470557044625 0.1279831418338377 0 96874.96163856072
0.1419862857572499 0.1269168341623721 0.002684228620837447 96871.01897135272
0.1430470557044625 0.1279831418338377 0.0146 96874.96163856072
0.1419862857572499 0.1269168341623721 0.01191577137916255 96871.01897135274
0.06347826086956521 0.1482589735239484 0 96862.22084782139
0.0624470055146638 0.1490577571915482 0.01341405634186339 96854.09205645174
0.0624470055146638 0.1490577571915482 0.001185943658136611 96854.09205645176
0.06347826086956521 0.1482589735239484 0.01250022575494474 96862.22084782137
0.06347826086956521 0.1482589735239484 0.0146 96862.22084782137
0.05152594925634235 0.1500943961904762 0.0146 96856.96227339937
0.05152594925634233 0.1500943961904762 0.0008548416447936871 96856.96227339936
0.05152594925634232 0.1500943961904762 0 96856.96227339937
0.06179139791372843 0.1483987270067419 0 96863.41570176606
0.06179139791372843 0.1483987270067419 0.0146 96863.41570176606
0.07617391304347826 0.1460685589548481 0 96866.20727478343
0.07375411257341308 0.1476619632096713 0.01181722945942505 96850.4050847241
0.07375411257341308 0.1476619632096713 0.002782770540574959 96850.4050847241
0.07617391304347826 0.1460685589548481 0.009994330964568364 96866.20727478342
0.07617391304347826 0.1460685589548481 0.0146 96866.20727478343
0.0648144048696868 0.1487512768824149 0.01306343439986016 96852.58906291786
0.06481440486968681 0.1487512768824149 0.001536565600139842 96852.5890629179
0.07262405101589145 0.1465260021926949 0 96868.77247181977
0.07262405101589145 0.1465260021926949 0.0146 96868.77247181976
0.08886956521739131 0.1435308106285843 0 96868.12562449166
0.08217817981969822 0.1457750106117237 0.007168302264217655 96847.75728173592
0.08886956521739131 0.1435308106285843 0.007091076758820957 96868.12562449166
0.08886956521739131 0.1435308106285843 0.0146 96868.12562449166
0.08339301338735462 0.1445892541520049 0 96871.80181225104
0.08339301338735464 0.1445892541520049 0.0146 96871.80181225104
0.1015652173913043 0.1405410375599868 0 96865.82140727843
0.1015652173913043 0.1405410375599868 0.003670693757952198 96865.82140727843
0.0957479692687442 0.1411233278168517 0.007503388219685288 96859.87116080707
0.1015652173913043 0.1405410375599868 0.0146 96865.82140727843
0.09399504015248938 0.1424846990216284 0 96871.36575028507
0.09399504015248938 0.1424846990216284 0.0146 96871.36575028507
0.1042577916660972 0.1400390974613522 0 96866.79068105792
0.1033355903502382 0.139112081815481 0.002035928902774028 96865.11905541796
0.1042577916660972 0.1400390974613522 0.0146 96866.79068105793
0.1033355903502382 0.139112081815481 0.01256407109722597 96865.11905541796
0.01269565217391304 0.153258675498718 0 96862.37387600353
0.01269565217391304 0.153258675498718 0.003620022960802185 96862.37387600352
0.01041924434409096 0.1523826879531737 0.002617869004295395 96860.17543422963
0.01041924434409096 0.1523826879531737 0.01198213099570461 96860.17543422962
0.01269565217391304 0.153258675498718 0.0146 96862.37387600349
0.002359384214786901 0.1524660975143806 0.01188670815299506 96860.26999650623
0 0.1534299063512414 0.0146 96862.52418451034
0.002359384214786901 0.1524660975143806 0.002713291847004936 96860.26999650625
0 0.1534299063512414 0.003815915787367119 96862.52418451033
0 0.1534299063512414 0 96862.52418451034
0.003283235804602455 0.1533947720494243 0 96862.58001146147
0.003283235804602455 0.1533947720494243 0.0146 96862.58001146148
0.02539130434782608 0.1527068604775925 0 96861.59752356281
0.02539130434782608 0.1527068604775925 0.002988731329438657 96861.59752356283
0.02352810936574038 0.1519673179376041 0.002142674229398556 96860.0216662435
0.02352810936574038 0.1519673179376041 0.01245732577060145 96860.0216662435
0.02539130434782608 0.1527068604775925 0.0146 96861.59752356281
0.0157437928665695 0.1531584496290439 0 96862.52419613423
0.01483953462238016 0.1522494707262207 0.002465464815737184 96860.59186868361
0.01483953462238016 0.1522494707262207 0.01213453518426282 96860.59186868362
0.0157437928665695 0.1531584496290439 0.0146 96862.52419613421
0.03808695652173913 0.1517198865573157 0 96859.87460631173
0.03808695652173913 0.1517198865573157 0.00185960589357433 96859.87460631171
0.03697353854975917 0.1512136267344689 0.001280430667776955 96859.19108961511
0.03697353854975916 0.1512136267344689 0.01331956933222305 96859.19108961509
0.03808695652173913 0.1517198865573157 0.0146 96859.8746063117
0.02785969320808061 0.1525756712160045 0 96861.77368755353
0.02704304743951938 0.1517547621676525 0.001899504555447294 96860.60463054177
0.02704304743951938 0.1517547621676525 0.01270049544455271 96860.60463054178
0.02785969320808061 0.1525756712160045 0.0146 96861.77368755353
0.05078260869565217 0.1502160126931228 0 96857.14596294983
0.05078260869565217 0.1502160126931228 0.0001391326394122237 96857.14596294983
0.0507043640960234 0.1501730492641744 8.998128957308996e-05 96857.11871337263
0.05070436409602339 0.1501730492641744 0.01451001871042691 96857.11871337265
0.05078260869565217 0.1502160126931228 0.0146 96857.14596294983
0.03960223142453766 0.1516175815498268 0 96859.98594630438
0.03903604803049404 0.1510484424088551 0.001091455235068149 96859.55814992724
0.03903604803049403 0.1510484424088551 0.01350854476493185 96859.55814992724
0.03960223142453766 0.1516175815498268 0.0146 96859.98594630438
0.0508951581552538 0.1502075332118519 0 96857.15229815463
0.05084809379533561 0.1501602231535634 7.530786463595122e-05 96857.13824329391
0.0508951581552538 0.150207533211852 0.0146 96857.15229815461
0.05084809379533561 0.1501602231535634 0.01452469213536405 96857.13824329394
0.31599948 0.04799895999999999 0 96756.17795249491
0.31599948 0.04799895999999999 0.0146 96756.17795249492
0.2920122889533644 0.1117824685932424 0.01457009623223163 96836.1286305614
0.2920122889533644 0.1117824685932424 2.99037677683744e-05 96836.12863056139
0.2921264269804772 0.1118086076190476 0.0146 96835.98898717373
0.2921264269804772 0.1118086076190476 0.0003076456514836458 96835.98898717371
0.2921264269804772 0.1118086076190476 0 96835.98898717371
0.2979998699999999 0.114078078033664 0 96828.97930095122
0.2979998699999999 0.114078078033664 0.002596336862038154 96828.97930095122
0.2973998723402454 0.1130848232450924 0.001460025939297933 96829.4174685382
0.2973998723402454 0.1130848232450924 0.01313997406070207 96829.4174685382
0.2979998699999999 0.114078078033664 0.0146 96828.97930095122
0.30399974 0.11548701574124 0 96826.24778368622
0.30399974 0.11548701574124 0.004208200529850428 96826.24778368621
0.3029287095382655 0.1140867261900348 0.002606230591883473 96827.93497381717
0.3029287095382655 0.1140867261900348 0.01199376940811653 96827.93497381717
0.30399974 0.11548701574124 0.0146 96826.24778368621
0.2991774562939524 0.1143133741042591 0 96829.26264734466
0.2987523778398486 0.1134092176353085 0.001831142085043674 96830.24336308218
0.2987523778398486 0.1134092176353085 0.01276885791495633 96830.24336308219
0.2991774562939524 0.1143133741042591 0.0146 96829.26264734466
0.30999961 0.116671136254667 0 96825.34092791416
0.30999961 0.116671136254667 0.005562867115634386 96825.34092791418
0.308387403433484 0.1152378263487366 0.007299999999999997 96830.03060587539
0.30999961 0.116671136254667 0.0146 96825.34092791419
0.3059059703170062 0.1158632249627204 0 96826.61383877376
0.3054029867916501 0.1147933617319786 0.003414641176907612 96830.41574722713
0.3054029867916501 0.1147933617319786 0.01118535882309239 96830.41574722716
0.3059059703170062 0.1158632249627204 0.0146 96826.61383877376
0.31599948 0.1198775057261993 0 96819.60579281091
0.31599948 0.1198775057261993 0.009231042386233923 96819.60579281091
0.3128706560123576 0.116678908488606 0.007195454444869725 96832.03021307015
0.31599948 0.1198775057261993 0.0146 96819.60579281091
0.3130928403756503 0.118388014848697 0 96823.17416670144
0.3130928403756503 0.118388014848697 0.0146 96823.17416670144
0.3205632618456724 0.05663175356820119 0.007299999999999996 96808.41395702254
0.3287751645165897 0.06076088952380952 0.0146 96819.98106405776
0.3287751645165897 0.06076088952380952 0.01322376122591856 96819.98106405776
0.3287751645165898 0.06076088952380952 0 96819.98106405775
0.3301047705263158 0.06183305602827418 0 96820.07002779203
0.3296278986413662 0.06119234503876394 0.0004935970306513659 96823.20729882222
0.3301047705263158 0.06183305602827418 0.001226588106130776 96820.07002779203
0.3296278986413661 0.06119234503876392 0.01410640296934865 96823.20729882224
0.3301047705263157 0.06183305602827415 0.0146 96820.07002779203
0.3442100610526315 0.07127846269608909 0 96798.45112271694
0.3381060019190344 0.06628360969230217 0.007300000000000001 96799.08802968747
0.3442100610526315 0.07127846269608909 0.01203239432005922 96798.4511227169
0.3442100610526315 0.07127846269608909 0.0146 96798.45112271688
0.3328441161963791 0.06323934513005727 0.002835421695732402 96811.31035862348
0.3345654688220631 0.064796759410438 0 96812.50827244608
0.332844116196379 0.06323934513005723 0.01176457830426765 96811.31035862349
0.3345654688220629 0.06479675941043792 0.0146 96812.50827244607
0.345162045690827 0.07266149961306119 0.01361462676775615 96798.32678628537
0.3471775175682285 0.07352281904761904 0.0146 96798.35175328738
0.345162045690827 0.0726614996130612 0.0009853732322438542 96798.32678628541
0.3471775175682285 0.07352281904761904 0.003071532985930775 96798.35175328741
0.3471775175682285 0.07352281904761904 0 96798.35175328741
0.3583153515789473 0.08157058059917346 0 96802.03264720517
0.3544795630667912 0.07699329436814117 0.007299999999999999 96798.22839809385
0.3583153515789473 0.08157058059917346 0.009206861582606592 96802.0326472052
0.3583153515789473 0.08157058059917346 0.0146 96802.0326472052
0.3604054291161994 0.0843937260377243 0.0124366179706154 96802.48119506121
0.3643753154876417 0.08628474857142857 0.0146 96803.53952733951
0.3604054291161994 0.0843937260377243 0.002163382029384599 96802.48119506119
0.3643753154876417 0.08628474857142857 0.006272502711083513 96803.5395273395
0.3643753154876417 0.08628474857142857 0 96803.53952733948
0.3724206421052632 0.09309963712785849 0 96806.6694496195
0.3695825388773118 0.08885255625386071 0.002937642939773761 96805.76703797298
0.3724206421052632 0.09309963712785849 0.007796420810681304 96806.66944961947
0.3695825388773118 0.08885255625386071 0.01166235706022624 96805.76703797298
0.3724206421052632 0.09309963712785849 0.0146 96806.66944961947
0.3750606502057897 0.09665809933761886 0.01186739990248503 96807.56121403686
0.3787449940205314 0.09904667809523811 0.0146 96807.5962130953
0.3750606502057897 0.09665809933761885 0.00273260009751497 96807.56121403689
0.3787449940205313 0.09904667809523811 0.006546163497352176 96807.59621309533
0.3787449940205314 0.09904667809523812 0 96807.59621309531
0.3865259326315789 0.1081432586125069 0 96808.94245142887
0.3832336200532145 0.1020254370947107 0.003407782601460213 96809.38291267813
0.3865259326315789 0.1081432586125069 0.0104067394592914 96808.94245142885
0.3832336200532145 0.1020254370947107 0.01119221739853979 96809.38291267812
0.386525932631579 0.1081432586125069 0.0146 96808.94245142885
0.3878778246582328 0.1105854672139797 0.01320069358002064 96808.92775823279
0.389610169320036 0.1118086076190476 0.0146 96809.1191561656
0.3878778246582329 0.1105854672139797 0.001399306419979361 96808.92775823279
0.389610169320036 0.1118086076190476 0.003192408945243815 96809.11915616559
0.389610169320036 0.1118086076190476 0 96809.1191561656
0.3184343288829902 0.1223675786296755 0.01207975459099307 96819.14607774749
0.3184343288829902 0.1223675786296755 0.002520245409006931 96819.14607774747
0.3266179857733582 0.1245705371428571 0.0146 96815.20884061998
0.3266179857733582 0.1245705371428571 0.01099092457555514 96815.20884061996
0.3266179857733582 0.1245705371428571 0 96815.20884061998
0.3944541042249343 0.1186289508876712 0.007467553717383345 96814.7057164065
0.3979624093724505 0.1245705371428571 0.0146 96810.18538207198
0.3979624093724504 0.1245705371428571 0.01183758392676908 96810.185382072
0.3979624093724504 0.1245705371428571 0 96810.18538207197
0.394051318862491 0.1186172903993966 0 96810.36022396749
0.394051318862491 0.1186172903993966 0.0146 96810.36022396751
0.3301047705263158 0.1262018218104817 0 96813.74241809626
0.3301047705263158 0.1262018218104817 0.001866234733774745 96813.74241809626
0.329277647251764 0.1253188867722135 0.0008561326536257229 96813.62529530337
0.3292776472517639 0.1253188867722135 0.01374386734637427 96813.62529530338
0.3301047705263158 0.1262018218104817 0.0146 96813.74241809626
0.3442100610526316 0.1333428305294732 0 96805.83374637144
0.3442100610526316 0.1333428305294732 0.01003574602144984 96805.83374637144
0.3395702830274989 0.1287684315465486 0.007299999999999999 96814.22248670305
0.3442100610526316 0.1333428305294732 0.0146 96805.83374637144
0.3342422843505332 0.1283140020314347 0 96812.28167160103
0.3319831197763642 0.126269995988139 0.001944227876734822 96815.92407647923
0.3319831197763642 0.126269995988139 0.01265577212326518 96815.92407647922
0.3342422843505332 0.1283140020314347 0.0146 96812.28167160103
0.346029052606706 0.1356867124034564 0.01271721164906599 96804.47510742585
0.346029052606706 0.1356867124034564 0.001882788350934005 96804.47510742584
0.3494516406196251 0.1373324666666666 0.0146 96799.95495969101
0.3494516406196252 0.1373324666666667 0.005425415487567029 96799.95495969099
0.3494516406196252 0.1373324666666667 0 96799.95495969101
0.4006312231578947 0.1291508792799415 0 96812.56285258327
0.399469087099795 0.1256219935763759 0.001202895212728913 96811.0444175734
0.4006312231578947 0.1291508792799415 0.005240037964217697 96812.56285258326
0.399469087099795 0.1256219935763759 0.01339710478727107 96811.04441757342
0.4006312231578947 0.1291508792799416 0.0146 96812.56285258327
0.4030321508253223 0.1351601987770893 0.01211486551240866 96814.66652407461
0.4050479300086112 0.1373324666666667 0.0146 96814.21869665838
0.4030321508253223 0.1351601987770893 0.002485134487591335 96814.66652407462
0.4050479300086112 0.1373324666666667 0.00457161232518778 96814.21869665837
0.4050479300086112 0.1373324666666667 0 96814.21869665837
0.3583153515789473 0.1456218810063295 0 96793.33255214135
0.3583153515789473 0.1456218810063295 0.009483319049308589 96793.33255214136
0.3552527490760281 0.1401033927407364 0.003170015992169656 96796.31348277096
0.3552527490760282 0.1401033927407364 0.01142998400783034 96796.31348277096
0.3583153515789473 0.1456218810063294 0.0146 96793.33255214136
0.3601687938998409 0.1484174721858582 0.01268155260364468 96790.81898631767
0.3601687938998409 0.1484174721858582 0.001918447396355323 96790.81898631765
0.3623593505161616 0.1500943961904762 0.0146 96791.03490542129
0.3623593505161616 0.1500943961904762 0.004185832569217656 96791.03490542126
0.3623593505161616 0.1500943961904762 0 96791.03490542127
0.406606688376226 0.1435699236834773 0.007245274391450352 96823.29959908483
0.4066728147223937 0.1500943961904762 0.0146 96814.75266547753
0.4066728147223937 0.1500943961904762 0.006253486000668982 96814.75266547751
0.4066728147223937 0.1500943961904762 0 96814.75266547751
0.4055059355286986 0.1417429207164417 0 96814.67221018221
0.4055059355286986 0.1417429207164417 0.0146 96814.67221018221
0.3680674189522537 0.1589176952425154 0.004505902087968978 96794.95756940253
0.3680674189522537 0.1589176952425154 0.01009409791203102 96794.95756940253
0.3665888110144795 0.1553708147964232 0.006036368677879292 96795.4021487912
0.3665888110144795 0.1553708147964232 0.008563631322120705 96795.4021487912
0.3691989667760666 0.1628563257142857 0.0146 96791.63922836568
0.3691989667760666 0.1628563257142857 0.01126533208100095 96791.63922836568
0.3691989667760667 0.1628563257142857 0 96791.63922836568
0.3659816879861748 0.1570306053208249 0 96791.97593042742
0.3659816879861748 0.1570306053208249 0.0146 96791.9759304274
0.4039619029381731 0.1598428535321291 0.01115250455838957 96814.28390850454
0.4036199898762109 0.1628563257142857 0.0146 96809.01825490288
0.4039619029381731 0.1598428535321291 0.003447495441610432 96814.28390850453
0.4036199898762109 0.1628563257142857 0.003093590593260457 96809.01825490288
0.4036199898762109 0.1628563257142857 0 96809.01825490288
0.4052721974103531 0.1542933728950815 0.007299999999999999 96818.73238942144
0.4057987477315959 0.154769775566682 0 96813.4228264777
0.4057987477315958 0.1547697755666819 0.0146 96813.42282647773
0.372420642105263 0.1690664198051912 0 96793.37876202652
0.372420642105263 0.1690664198051912 0.00710451923105087 96793.37876202652
0.3709131205553373 0.1642202737832661 0.001560394278150599 96791.98135628023
0.3709131205553373 0.1642202737832661 0.0130396057218494 96791.98135628022
0.372420642105263 0.1690664198051912 0.0146 96793.37876202652
0.3739606350723289 0.1742249282678928 0.0130059954470833 96795.0563774449
0.3739606350723289 0.1742249282678928 0.001594004552916699 96795.0563774449
0.3764745855606955 0.1756182552380953 0.0146 96795.88797183971
0.3764745855606955 0.1756182552380953 0.004196125867729368 96795.88797183969
0.3764745855606954 0.1756182552380952 0 96795.88797183969
0.400857805046745 0.1754132525767544 0.01436547129099941 96802.48063048246
0.4010406044376864 0.1756182552380952 0.0146 96802.4090653138
0.400857805046745 0.1754132525767544 0.0002345287090005897 96802.48063048246
0.4010406044376864 0.1756182552380952 0.000423739353245363 96802.40906531381
0.4010406044376864 0.1756182552380952 0 96802.40906531381
0.4021257660082173 0.1642085311502918 0.001546960381567428 96808.93339143069
0.4033808643860111 0.1653440963492482 0 96808.59171170086
0.4033808643860111 0.1653440963492482 0.0146 96808.59171170088
0.4021257660082173 0.1642085311502918 0.01305303961843257 96808.93339143066
0.3787632122546735 0.1826416689124383 0.008034979307329541 96805.0196873345
0.3787632122546735 0.1826416689124383 0.006565020692670451 96805.0196873345
0.3813522396744703 0.1883801847619047 0.0146 96796.01526411591
0.3813522396744703 0.1883801847619047 0.00924485208348867 96796.01526411591
0.3813522396744703 0.1883801847619048 0 96796.01526411594
0.3779574987854969 0.1806277922344973 0.005731048742356382 96803.77775466727
0.3782577854451513 0.1808994801646608 0 96795.74777472368
0.3779574987854969 0.1806277922344973 0.008868951257643611 96803.77775466727
0.3782577854451513 0.1808994801646607 0.0146 96795.74777472368
0.4033505556381753 0.1859198363273652 0.01178529340902082 96805.22088986088
0.4063934996115225 0.1883801847619047 0.0146 96804.24644257757
0.4033505556381753 0.1859198363273652 0.002814706590979179 96805.22088986091
0.4063934996115225 0.1883801847619047 0.00596437457746859 96804.24644257758
0.4063934996115225 0.1883801847619048 0 96804.24644257758
0.4009332417158284 0.1758915101238448 0.0003126111396008165 96802.68133023761
0.4012931737270345 0.1762171628958885 0 96802.58028248198
0.4012931737270345 0.1762171628958885 0.0146 96802.580282482
0.4009332417158284 0.1758915101238448 0.01428738886039918 96802.68133023761
0.382330211738206 0.1973459858583769 0.004342875811664998 96801.87058274329
0.382330211738206 0.1973459858583769 0.01025712418833501 96801.87058274329
0.3828767613978195 0.1916818158781633 0.003777157224339987 96798.83565646743
0.3828767613978195 0.1916818158781633 0.01082284277566002 96798.83565646742
0.379973568758338 0.2011421142857142 0.0146 96799.42660817647
0.379973568758338 0.2011421142857142 0.007817827568256074 96799.42660817647
0.379973568758338 0.2011421142857142 0 96799.42660817647
0.3802856303519627 0.1954961265089187 0 96799.61132146939
0.3802856303519627 0.1954961265089187 0.0146 96799.61132146936
0.4139234649897038 0.2004064988002083 0.0008415644412038657 96816.88398317943
0.4107846941124342 0.1919556405649404 0.0073 96812.19688926989
0.4139234649897038 0.2004064988002083 0.01375843555879614 96816.88398317943
0.4138630917005896 0.2011421142857143 0.0146 96816.9233945047
0.4138630917005896 0.2011421142857143 0.0136959448203444 96816.9233945047
0.4138630917005896 0.2011421142857143 0 96816.9233945047
0.4129176696076888 0.1994964934545757 0 96815.07832769504
0.4129176696076888 0.1994964934545757 0.0146 96815.07832769502
0.3760036768470484 0.2106622504717179 0.01089129884758698 96806.08605678343
0.3760036768470484 0.2106622504717179 0.003708701152413016 96806.08605678345
0.3763779200782171 0.2139040438095238 0.0146 96812.11621285838
0.3763779200782172 0.2139040438095238 0.004096070073660633 96812.11621285837
0.3763779200782171 0.2139040438095238 0 96812.11621285837
0.377135071160018 0.2054075500971592 0.004879776426512277 96803.15643799637
0.3785177483685411 0.2066585437620133 0 96810.36007046992
0.377135071160018 0.2054075500971592 0.009720223573487719 96803.15643799637
0.3785177483685411 0.2066585437620133 0.0146 96810.36007046991
0.414243614486818 0.2134580873928355 0.0005101864629092294 96826.91112275726
0.4143482452496278 0.2014934047741461 0.0004018860252703978 96818.19590991382
0.4142436144868181 0.2134580873928355 0.01408981353709077 96826.91112275723
0.4143482452496278 0.2014934047741461 0.0141981139747296 96818.1959099138
0.413633050936356 0.2139040438095238 0.0146 96827.30101618149
0.413633050936356 0.2139040438095238 0.01345783592414369 96827.30101618149
0.413633050936356 0.2139040438095238 0 96827.30101618149
0.4136298892077654 0.2129028121403593 0 96825.2185832882
0.4136298892077654 0.2129028121403593 0.0146 96825.21858328817
0.3750830695055848 0.2242571104473279 0.01184419429914076 96822.00624415014
0.3750830695055849 0.224257110447328 0.002755805700859238 96822.00624415014
0.3818176038951891 0.2266659733333333 0.0146 96828.71438583157
0.381817603895189 0.2266659733333333 0.009726537845991642 96828.71438583158
0.381817603895189 0.2266659733333333 0 96828.71438583158
0.3745572738868453 0.2158371868500031 0.00221156905296653 96815.59476419956
0.3807221480617601 0.2214149301511164 0 96824.14772376514
0.3745572738868453 0.215837186850003 0.01238843094703347 96815.59476419959
0.3807221480617602 0.2214149301511164 0.0146 96824.14772376513
0.4006312231578947 0.2265058288532639 0 96833.31022395496