# U  POINT_DATA 465
# x y z  U_x U_y U_z
0.1904347826086957 0.1107640354939543 0 0.9338640681393706 -0.5026037777487441 0
0.1899070772850723 0.1112781474223466 0.01399313887783305 0.9301964610716114 -0.5089525926509918 0
0.1899070772850723 0.1112781474223466 0.0006068611221669496 0.9301964610716114 -0.5089525926509918 0
0.1904347826086957 0.1107640354939543 0.01340498062633016 0.9338640681393706 -0.5026037777487441 0
0.1904347826086957 0.1107640354939543 0.0146 0.9338640681393706 -0.502603777748744 0
0.1876267675605755 0.1118086076190476 0.0146 0.9116572593038462 -0.5179187398512638 0
0.1876267675605755 0.1118086076190476 0.01137078269466176 0.9116572593038463 -0.5179187398512639 0
0.1876267675605755 0.1118086076190476 0 0.9116572593038463 -0.5179187398512638 0
0.1895118345113836 0.1108808412931685 0 0.9275407387732891 -0.5055217730431523 0
0.1895118345113836 0.1108808412931685 0.0146 0.927540738773289 -0.5055217730431524 0
0.2031304347826087 0.1076323770093909 0 1.040714466976589 -0.4177343966125384 1.753302744605646e-22
0.2006745119201044 0.109339863669714 0.01177568870812012 1.024476546674863 -0.4498998116390714 1.93322486861828e-37
0.2006745119201044 0.109339863669714 0.00282431129187988 1.024476546674863 -0.4498998116390714 1.93322486861828e-37
0.2031304347826087 0.1076323770093909 0.009822276789161654 1.040714466976589 -0.4177343966125386 1.753302744605646e-22
0.2031304347826087 0.1076323770093909 0.0146 1.040714466976589 -0.4177343966125385 1.753302744605645e-22
0.1912319771530882 0.1110072513395169 0.01368322627394859 0.9398144620195563 -0.5038499973213206 0
0.1912319771530882 0.1110072513395169 0.000916773726051408 0.9398144620195563 -0.5038499973213206 0
0.1995572714594399 0.1082167906818255 0 1.018576239602184 -0.4363361042996957 0
0.1995572714594399 0.1082167906818255 0.0146 1.018576239602184 -0.4363361042996958 0
0.2158260869565218 0.1054942909365529 0 1.147652868419595 -0.3114405975684916 5.448814797539222e-22
0.2092066658811693 0.1073435296918082 0.007195888587781536 1.078015899456622 -0.3986163645068322 0
0.2158260869565218 0.1054942909365529 0.007376247244397532 1.147652868419594 -0.3114405975684917 5.448814797539222e-22
0.2158260869565218 0.1054942909365529 0.0146 1.147652868419595 -0.3114405975684917 5.448814797539221e-22
0.2104583857299733 0.1064128844360483 0 1.122798871149759 -0.3498564868799227 2.265281099183034e-22
0.2104583857299733 0.1064128844360483 0.0146 1.122798871149758 -0.3498564868799229 2.265281099183034e-22
0.2285217391304347 0.1038433103048585 0 1.219287946241249 -0.1834569864216972 3.345763087545686e-21
0.2285217391304347 0.1038433103048585 0.005487479783508029 1.219287946241249 -0.1834569864216971 3.345763087545685e-21
0.2223526565810539 0.103857473293936 0.007368518356070643 1.133807599792812 -0.2800716017771457 1.975257387956819e-22
0.2285217391304348 0.1038433103048585 0.0146 1.21928794624125 -0.1834569864216966 3.345763087545704e-21
0.2215331361916421 0.1047835208450083 0 1.190637806876005 -0.2465181020194832 4.185672506678511e-21
0.2215331361916421 0.1047835208450083 0.0146 1.190637806876006 -0.2465181020194832 4.185672506678506e-21
0.2412173913043479 0.1034444643553755 0 1.274613387156413 -0.04669032721139225 8.175472776710764e-22
0.2412173913043479 0.1034444643553755 0.005031188996790422 1.274613387156413 -0.04669032721139217 8.17547277671086e-22
0.2349355010645951 0.1023931787007782 0.007325275408094779 1.199832614175914 -0.1365053811661023 -1.014110847181862e-21
0.2412173913043479 0.1034444643553754 0.0146 1.274613387156413 -0.04669032721139224 8.175472776710557e-22
0.2331385506247788 0.1036875915440642 0 1.233574633169974 -0.132132198582241 4.483730446460682e-21
0.2331385506247788 0.1036875915440642 0.0146 1.233574633169974 -0.132132198582241 4.48373044646068e-21
0.2539130434782608 0.1042490374608021 0 1.330247631585003 0.1003156736091703 -4.122783646623421e-21
0.2539130434782608 0.1042490374608021 0.005951642860550917 1.330247631585003 0.1003156736091702 -4.122783646623421e-21
0.247428951635534 0.1027310319957728 0.007247764793621366 1.261489510570763 0.004750316008245933 -7.403535476345961e-21
0.2539130434782608 0.1042490374608021 0.0146 1.330247631585002 0.1003156736091703 -4.122783646623425e-21
0.2458629499871198 0.1037164888065049 0 1.283608160293773 0.006970431169632689 -2.253201435293406e-21
0.2458629499871198 0.1037164888065049 0.0146 1.283608160293773 0.006970431169632637 -2.253201435293406e-21
0.2666086956521739 0.1058245790210698 0 1.379546902954066 0.2427187849705296 -2.42684946476359e-21
0.2666086956521739 0.1058245790210698 0.007754105939272055 1.379546902954066 0.2427187849705296 -2.42684946476359e-21
0.2601451607990381 0.1043367656030613 0.007255644972964648 1.329379053050491 0.1541154202880912 -5.591430813033245e-21
0.2666086956521739 0.1058245790210698 0.0146 1.379546902954066 0.2427187849705304 -2.426849464763564e-21
0.2598378828079211 0.1050024479075513 0 1.340919363110772 0.1645254896640584 -5.087478225676332e-21
0.2598378828079212 0.1050024479075513 0.0146 1.340919363110772 0.1645254896640591 -5.087478225676328e-21
0.2793043478260869 0.1083735597648826 0 1.446291836940039 0.3603279528054616 0
0.2733910216602188 0.1077902123046985 0.007466558303083863 1.406229757421036 0.2966461896290834 -2.05900936374037e-22
0.2793043478260869 0.1083735597648825 0.01067021034105827 1.446291836940039 0.3603279528054617 0
0.2793043478260869 0.1083735597648826 0.0146 1.446291836940039 0.3603279528054616 0
0.2751390993273093 0.1076216145396548 0 1.420353504940046 0.3182006690000422 -1.191003849225702e-21
0.2751390993273093 0.1076216145396548 0.0146 1.420353504940046 0.3182006690000417 -1.191003849225708e-21
0.28122810836347 0.1098748041355828 0.01238767538200937 1.454970130605172 0.3688997290781265 0
0.28122810836347 0.1098748041355828 0.002212324617990633 1.454970130605172 0.3688997290781265 0
0.2919600823320855 0.1117684815618982 0.01455409468189841 1.501424699725605 0.4182016877933007 0
0.2919600823320856 0.1117684815618982 4.59053181015944e-05 1.501424699725604 0.4182016877933009 0
0.292 0.11175460861325 0 1.501654890910137 0.4184583586991571 0
0.292 0.11175460861325 0.01453822364532153 1.501654890910137 0.4184583586991569 0
0.292 0.11175460861325 0.0146 1.501654890910137 0.4184583586991569 0
0.2919323169131277 0.1117405711942318 0 1.501297560321562 0.4180794008929618 0
0.2919323169131277 0.1117405711942318 0.0146 1.501297560321562 0.4180794008929618 0
0.1523478260869565 0.1238955297016043 0 0.6637654568133605 -0.6143555799505057 3.236460640995599e-21
0.152019658019492 0.12424065588181 0.01422260672241592 0.6614460756666883 -0.6164732377949455 3.240542704278111e-21
0.152019658019492 0.12424065588181 0.000377393277584082 0.6614460756666884 -0.6164732377949453 3.240542704278109e-21
0.1523478260869565 0.1238955297016043 0.0138277728360822 0.6637654568133606 -0.6143555799505058 3.236460640995601e-21
0.1523478260869565 0.1238955297016043 0.0146 0.6637654568133606 -0.6143555799505058 3.236460640995601e-21
0.1507409897152156 0.1245705371428571 0.0146 0.6537468068808845 -0.6171731239845244 2.852118616759184e-21
0.1507409897152156 0.1245705371428571 0.01275213817249801 0.6537468068808845 -0.6171731239845244 2.852118616759187e-21
0.1507409897152156 0.1245705371428571 0 0.6537468068808845 -0.6171731239845242 2.852118616759183e-21
0.1517588016736453 0.1239784377416206 0 0.6602552552897496 -0.6142459185758923 3.258660553140482e-21
0.1517588016736453 0.1239784377416206 0.0146 0.6602552552897497 -0.6142459185758924 3.258660553140484e-21
0.1650434782608696 0.1194200847893128 0 0.7203413613314787 -0.581982065636921 1.369014410605149e-20
0.1622121296146596 0.1217244075084527 0.01134394905685858 0.7017521514637723 -0.5996036503959071 1.271564013242026e-20
0.1622121296146596 0.1217244075084527 0.003256050943141413 0.7017521514637723 -0.599603650395907 1.271564013242025e-20
0.1650434782608696 0.1194200847893128 0.00870774019544187 0.7203413613314789 -0.581982065636921 1.369014410605148e-20
0.1650434782608696 0.1194200847893128 0.0146 0.7203413613314789 -0.5819820656369211 1.369014410605148e-20
0.1528950787968415 0.12402042751323 0.01397065938363227 0.6666592289432675 -0.6162734746833886 3.12260358924593e-21
0.1528950787968415 0.12402042751323 0.0006293406163677273 0.6666592289432673 -0.6162734746833883 3.122603589245925e-21
0.160945674598826 0.1204513409943626 0 0.6919015451215695 -0.5841906213493955 1.554498065637895e-20
0.1609456745988261 0.1204513409943626 0.0146 0.6919015451215696 -0.5841906213493956 1.554498065637899e-20
0.1777391304347826 0.1153315900868355 0 0.8048439741498219 -0.5699008145471269 1.133872999603733e-20
0.1777391304347826 0.1153315900868355 0.004030389286646778 0.8048439741498221 -0.569900814547127 1.133872999603726e-20
0.1718288270194384 0.116758515545872 0.00746771702411806 0.7826283379730388 -0.5858210598006127 0
0.1777391304347826 0.1153315900868355 0.0146 0.8048439741498221 -0.5699008145471269 1.133872999603734e-20
0.1709137139148227 0.1177094886984647 0 0.7419719361457093 -0.5887772274379728 1.899200405054764e-20
0.1709137139148227 0.1177094886984647 0.0146 0.7419719361457093 -0.5887772274379728 1.899200405054766e-20
0.1805800275802909 0.1146643356004637 0 0.839324783951975 -0.5723358970330084 4.819469422203633e-21
0.1795833360990005 0.1136624409150258 0.002120836513850551 0.8425632567983695 -0.5562692495882215 -3.718562807590036e-35
0.1805800275802909 0.1146643356004637 0.0146 0.8393247839519751 -0.5723358970330084 4.819469422203633e-21
0.1795833360990005 0.1136624409150258 0.01247916348614945 0.8425632567983695 -0.5562692495882214 0
0.1142608695652174 0.1366955007496477 0 0.4512093459866623 -0.6318163990853262 -1.901572017823173e-21
0.1139406233386759 0.1370105486023245 0.01423171683947727 0.4492798790130006 -0.6330387999349979 -1.853642219040532e-21
0.1139406233386759 0.1370105486023245 0.0003682831605227246 0.4492798790130006 -0.6330387999349979 -1.853642219040541e-21
0.1142608695652174 0.1366955007496477 0.01387129339093065 0.4512093459866623 -0.6318163990853262 -1.901572017823175e-21
0.1142608695652174 0.1366955007496477 0.0146 0.4512093459866623 -0.6318163990853262 -1.901572017823175e-21
0.1122750164061728 0.1373324666666667 0.0146 0.4410700473570533 -0.6319191102897355 -1.646774996858526e-21
0.1122750164061728 0.1373324666666667 0.01231626886709874 0.4410700473570533 -0.6319191102897356 -1.646774996858526e-21
0.1122750164061728 0.1373324666666667 0 0.4410700473570534 -0.6319191102897355 -1.646774996858529e-21
0.1136953760983048 0.1367640210545742 0 0.4484670787505078 -0.6313418449771024 -1.865174317359446e-21
0.1136953760983048 0.1367640210545742 0.0146 0.4484670787505078 -0.6313418449771024 -1.865174317359444e-21
0.1269565217391304 0.1327949886953032 0 0.5145063633945862 -0.628943163685281 -2.689212708043573e-21
0.1244671110291514 0.1348300600473479 0.01173717768352416 0.4989791897895549 -0.6372355452023059 -3.343504333096023e-21
0.1244671110291514 0.1348300600473479 0.002862822316475852 0.4989791897895547 -0.6372355452023057 -3.343504333096019e-21
0.1269565217391304 0.1327949886953032 0.009408999825746528 0.5145063633945863 -0.628943163685281 -2.689212708043579e-21
0.1269565217391304 0.1327949886953032 0.0146 0.5145063633945863 -0.6289431636852811 -2.689212708043579e-21
0.1147415661415527 0.1368492606252998 0.0140471989372144 0.4531711274310242 -0.6336593944924939 -2.088800272238214e-21
0.1147415661415527 0.1368492606252998 0.0005528010627855967 0.4531711274310242 -0.6336593944924941 -2.088800272238213e-21
0.123241358185344 0.1335979081900041 0 0.4949784105631249 -0.6270155912377957 -2.451239203815439e-21
0.1232413581853441 0.133597908190004 0.0146 0.4949784105631251 -0.6270155912377956 -2.451239203815444e-21
0.1396521739130435 0.1288554299666162 0 0.5781684463954777 -0.6276520640757262 -1.07342591932696e-21
0.1396521739130435 0.1288554299666162 0.004902035786216135 0.5781684463954777 -0.6276520640757262 -1.07342591932696e-21
0.1333178842676677 0.1309092015117508 0.007305188969272597 0.5466208076602437 -0.6366477948641074 -4.171483924421179e-21
0.1396521739130435 0.1288554299666162 0.0146 0.5781684463954777 -0.6276520640757262 -1.07342591932696e-21
0.1332696364119917 0.1309166092805558 0 0.5381693727051149 -0.6268718354543434 -1.558061516453251e-21
0.1332696364119917 0.1309166092805558 0.0146 0.5381693727051147 -0.6268718354543434 -1.55806151645325e-21
0.1430470557044625 0.1279831418338377 0 0.564134470305995 -0.608932215346205 3.013461665185262e-21
0.1419862857572499 0.1269168341623721 0.002684228620837447 0.6000776124099392 -0.6259151143388704 -6.623640329488517e-22
0.1430470557044625 0.1279831418338377 0.0146 0.564134470305995 -0.6089322153462049 3.01346166518526e-21
0.1419862857572499 0.1269168341623721 0.01191577137916255 0.6000776124099393 -0.6259151143388704 -6.623640329488514e-22
0.06347826086956521 0.1482589735239484 0 0.2288947042269508 -0.6113075626196534 -7.665717910163628e-22
0.0624470055146638 0.1490577571915482 0.01341405634186339 0.2243188048148689 -0.6138084502405808 -4.320740340052131e-22
0.0624470055146638 0.1490577571915482 0.001185943658136611 0.2243188048148689 -0.6138084502405809 -4.320740340052128e-22
0.06347826086956521 0.1482589735239484 0.01250022575494474 0.2288947042269508 -0.6113075626196534 -7.665717910163629e-22
0.06347826086956521 0.1482589735239484 0.0146 0.2288947042269508 -0.6113075626196534 -7.665717910163629e-22
0.05152594925634235 0.1500943961904762 0.0146 0.1826382910293844 -0.6077637827234292 -3.020538716438285e-23
0.05152594925634233 0.1500943961904762 0.0008548416447936871 0.1826382910293843 -0.6077637827234292 -3.020538716438199e-23
0.05152594925634232 0.1500943961904762 0 0.1826382910293843 -0.6077637827234293 -3.020538716438175e-23
0.06179139791372843 0.1483987270067419 0 0.2223978346171841 -0.6104327182873164 -6.591251642397584e-22
0.06179139791372843 0.1483987270067419 0.0146 0.2223978346171841 -0.6104327182873162 -6.591251642397587e-22
0.07617391304347826 0.1460685589548481 0 0.2806033879151473 -0.6160067524566996 -1.634139889245208e-21
0.07375411257341308 0.1476619632096713 0.01181722945942505 0.2691600863911609 -0.6205600115534375 -1.432399977654465e-21
0.07375411257341308 0.1476619632096713 0.002782770540574959 0.269160086391161 -0.6205600115534374 -1.432399977654465e-21
0.07617391304347826 0.1460685589548481 0.009994330964568364 0.2806033879151473 -0.6160067524566996 -1.634139889245209e-21
0.07617391304347826 0.1460685589548481 0.0146 0.2806033879151473 -0.6160067524566994 -1.634139889245209e-21
0.0648144048696868 0.1487512768824149 0.01306343439986016 0.2333118806548189 -0.6151131650436689 -8.416459470780574e-22
0.06481440486968681 0.1487512768824149 0.001536565600139842 0.2333118806548189 -0.615113165043669 -8.416459470780634e-22
0.07262405101589145 0.1465260021926949 0 0.2664575456572723 -0.6140554477783401 -1.383427139814329e-21
0.07262405101589145 0.1465260021926949 0.0146 0.2664575456572723 -0.6140554477783401 -1.383427139814329e-21
0.08886956521739131 0.1435308106285843 0 0.3339625558030004 -0.622211967694706 -1.008734627095675e-21
0.08217817981969822 0.1457750106117237 0.007168302264217655 0.3020659291000112 -0.6242705953809921 -1.696673669546588e-21
0.08886956521739131 0.1435308106285843 0.007091076758820957 0.3339625558030003 -0.622211967694706 -1.008734627095675e-21
0.08886956521739131 0.1435308106285843 0.0146 0.3339625558030004 -0.6222119676947061 -1.008734627095676e-21
0.08339301338735462 0.1445892541520049 0 0.3113996366503745 -0.6195977599599178 -1.557789870343703e-21
0.08339301338735464 0.1445892541520049 0.0146 0.3113996366503745 -0.6195977599599178 -1.557789870343703e-21
0.1015652173913043 0.1405410375599868 0 0.3913699207593027 -0.6304856029878954 0
0.1015652173913043 0.1405410375599868 0.003670693757952198 0.3913699207593028 -0.6304856029878954 0
0.0957479692687442 0.1411233278168517 0.007503388219685288 0.3596977756959239 -0.6237409226719085 -2.357797835792806e-22
0.1015652173913043 0.1405410375599868 0.0146 0.3913699207593028 -0.6304856029878954 0
0.09399504015248938 0.1424846990216284 0 0.3594706357024758 -0.6286864700994926 -8.723508989420612e-22
0.09399504015248938 0.1424846990216284 0.0146 0.3594706357024758 -0.6286864700994927 -8.723508989420611e-22
0.1042577916660972 0.1400390974613522 0 0.4049257345862534 -0.6340200729332497 -2.148189415558572e-22
0.1033355903502382 0.139112081815481 0.002035928902774028 0.395984603779035 -0.6261225761145622 4.49811046650773e-37
0.1042577916660972 0.1400390974613522 0.0146 0.4049257345862535 -0.6340200729332497 -2.148189415558567e-22
0.1033355903502382 0.139112081815481 0.01256407109722597 0.395984603779035 -0.6261225761145622 5.622638083134665e-37
0.01269565217391304 0.153258675498718 0 0.04705113099940079 -0.6009218403601558 1.343826734202764e-39
0.01269565217391304 0.153258675498718 0.003620022960802185 0.04705113099940078 -0.6009218403601558 1.343826734202764e-39
0.01041924434409096 0.1523826879531737 0.002617869004295395 0.03809311326503897 -0.5965258103269342 3.008604089611447e-54
0.01041924434409096 0.1523826879531737 0.01198213099570461 0.03809311326503897 -0.5965258103269332 0
0.01269565217391304 0.153258675498718 0.0146 0.04705113099940077 -0.6009218403601557 1.343826734202763e-39
0.002359384214786901 0.1524660975143806 0.01188670815299506 0.00908917629225893 -0.22575966207927 0
0 0.1534299063512414 0.0146 0 0 0
0.002359384214786901 0.1524660975143806 0.002713291847004936 0.00908917629225893 -0.22575966207927 0
0 0.1534299063512414 0.003815915787367119 0 0 0
0 0.1534299063512414 0 0 0 0
0.003283235804602455 0.1533947720494243 0 0.01321288650365725 -0.1636211036994363 1.401625103264432e-39
0.003283235804602455 0.1533947720494243 0.0146 0.01321288650365725 -0.1636211036994363 1.401625103264435e-39
0.02539130434782608 0.1527068604775925 0 0.09054938679236928 -0.6026457528257311 0
0.02539130434782608 0.1527068604775925 0.002988731329438657 0.09054938679236929 -0.6026457528257312 0
0.02352810936574038 0.1519673179376041 0.002142674229398556 0.0821683799292957 -0.5983830580115429 0
0.02352810936574038 0.1519673179376041 0.01245732577060145 0.08216837992929571 -0.5983830580115428 0
0.02539130434782608 0.1527068604775925 0.0146 0.09054938679236929 -0.6026457528257311 0
0.0157437928665695 0.1531584496290439 0 0.05789061650913799 -0.6016189218578996 0
0.01483953462238016 0.1522494707262207 0.002465464815737184 0.05244340152525617 -0.5968459977637552 9.03654009364458e-54
0.01483953462238016 0.1522494707262207 0.01213453518426282 0.05244340152525617 -0.5968459977637551 0
0.0157437928665695 0.1531584496290439 0.0146 0.05789061650913799 -0.6016189218578996 0
0.03808695652173913 0.1517198865573157 0 0.1353240537435157 -0.6052318076731643 0
0.03808695652173913 0.1517198865573157 0.00185960589357433 0.1353240537435157 -0.6052318076731642 0
0.03697353854975917 0.1512136267344689 0.001280430667776955 0.1295935693214515 -0.6017701561136659 0
0.03697353854975916 0.1512136267344689 0.01331956933222305 0.1295935693214515 -0.6017701561136658 0
0.03808695652173913 0.1517198865573157 0.0146 0.1353240537435157 -0.6052318076731643 0
0.02785969320808061 0.1525756712160045 0 0.09995513296091316 -0.6039623888959553 0
0.02704304743951938 0.1517547621676525 0.001899504555447294 0.09434203861761171 -0.5989307207423296 0
0.02704304743951938 0.1517547621676525 0.01270049544455271 0.0943420386176117 -0.5989307207423294 0
0.02785969320808061 0.1525756712160045 0.0146 0.09995513296091316 -0.6039623888959553 0
0.05078260869565217 0.1502160126931228 0 0.1799720912362229 -0.6076542821815342 0
0.05078260869565217 0.1502160126931228 0.0001391326394122237 0.1799720912362229 -0.6076542821815342 0
0.0507043640960234 0.1501730492641744 8.998128957308996e-05 0.179498731250157 -0.6073110830759821 0
0.05070436409602339 0.1501730492641744 0.01451001871042691 0.179498731250157 -0.607311083075982 0
0.05078260869565217 0.1502160126931228 0.0146 0.1799720912362229 -0.6076542821815342 0
0.03960223142453766 0.1516175815498268 0 0.1413044463285512 -0.6064935508849966 0
0.03903604803049404 0.1510484424088551 0.001091455235068149 0.1368869817119707 -0.6023703666449379 0
0.03903604803049403 0.1510484424088551 0.01350854476493185 0.1368869817119706 -0.6023703666449378 0
0.03960223142453766 0.1516175815498268 0.0146 0.1413044463285511 -0.6064935508849966 0
0.0508951581552538 0.1502075332118519 0 0.1804354484096971 -0.6077948410822472 0
0.05084809379533561 0.1501602231535634 7.530786463595122e-05 0.1800369828428107 -0.607379366282283 0
0.0508951581552538 0.150207533211852 0.0146 0.1804354484096971 -0.6077948410822472 0
0.05084809379533561 0.1501602231535634 0.01452469213536405 0.1800369828428107 -0.6073793662822831 -4.497384666672175e-37
0.31599948 0.04799895999999999 0 0 0 0
0.31599948 0.04799895999999999 0.0146 -2.855986484763979e-17 8.307266642995908e-17 1.084969368717935e-35
0.2920122889533644 0.1117824685932424 0.01457009623223163 1.501638654359256 0.4183556214505601 0
0.2920122889533644 0.1117824685932424 2.99037677683744e-05 1.501638654359256 0.41835562145056 0
0.2921264269804772 0.1118086076190476 0.0146 1.502263682135105 0.4187034274217294 0
0.2921264269804772 0.1118086076190476 0.0003076456514836458 1.502263682135105 0.4187034274217293 0
0.2921264269804772 0.1118086076190476 0 1.502263682135105 0.4187034274217294 0
0.2979998699999999 0.114078078033664 0 1.569726308954444 0.433643195492899 -1.598137445854924e-22
0.2979998699999999 0.114078078033664 0.002596336862038154 1.569726308954443 0.433643195492899 -1.598137445854922e-22
0.2973998723402454 0.1130848232450924 0.001460025939297933 1.530783161277929 0.4347664863601942 0
0.2973998723402454 0.1130848232450924 0.01313997406070207 1.530783161277929 0.434766486360194 -9.977372203412532e-38
0.2979998699999999 0.114078078033664 0.0146 1.569726308954443 0.433643195492899 -1.598137445854922e-22
0.30399974 0.11548701574124 0 1.614641045250413 0.4522923041671575 9.359697222862232e-23
0.30399974 0.11548701574124 0.004208200529850428 1.61464104525041 0.452292304167157 9.359697222861932e-23
0.3029287095382655 0.1140867261900348 0.002606230591883473 1.559831925543659 0.4497103841046095 1.802596249689444e-37
0.3029287095382655 0.1140867261900348 0.01199376940811653 1.55983192554366 0.4497103841046095 1.6223366247205e-37
0.30399974 0.11548701574124 0.0146 1.614641045250413 0.4522923041671574 9.35969722286223e-23
0.2991774562939524 0.1143133741042591 0 1.572761331984108 0.4383544894002224 6.373369984182125e-23
0.2987523778398486 0.1134092176353085 0.001831142085043674 1.537095951038586 0.4374867949272734 -3.392306549160261e-36
0.2987523778398486 0.1134092176353085 0.01276885791495633 1.537095951038586 0.4374867949272734 -4.68936493560389e-36
0.2991774562939524 0.1143133741042591 0.0146 1.572761331984108 0.4383544894002224 6.373369984182034e-23
0.30999961 0.116671136254667 0 1.629598088193169 0.4663736076976711 -1.549805674417289e-21
0.30999961 0.116671136254667 0.005562867115634386 1.629598088193169 0.4663736076976711 -1.54980567441729e-21
0.308387403433484 0.1152378263487366 0.007299999999999997 1.586773659911841 0.4639762680606139 -2.551467814768846e-35
0.30999961 0.116671136254667 0.0146 1.629598088193169 0.4663736076976711 -1.549805674417294e-21
0.3059059703170062 0.1158632249627204 0 1.602694419300446 0.4549747285779117 -1.292304773443105e-21
0.3054029867916501 0.1147933617319786 0.003414641176907612 1.57133709916219 0.4553949243584522 1.631349605968947e-36
0.3054029867916501 0.1147933617319786 0.01118535882309239 1.57133709916219 0.4553949243584523 1.694440474708078e-36
0.3059059703170062 0.1158632249627204 0.0146 1.602694419300446 0.4549747285779117 -1.292304773443105e-21
0.31599948 0.1198775057261993 0 1.647876393242953 0.4883356305196944 -2.986323273798803e-21
0.31599948 0.1198775057261993 0.009231042386233923 1.647876393242953 0.4883356305196944 -2.986323273798804e-21
0.3128706560123576 0.116678908488606 0.007195454444869725 1.610486009778496 0.4758281807162086 0
0.31599948 0.1198775057261993 0.0146 1.647876393242953 0.4883356305196944 -2.986323273798803e-21
0.3130928403756503 0.118388014848697 0 1.627145767098595 0.4771298623234292 -2.435058254148394e-21
0.3130928403756503 0.118388014848697 0.0146 1.627145767098595 0.4771298623234294 -2.435058254148394e-21
0.3205632618456724 0.05663175356820119 0.007299999999999996 0.6563321626916886 0.5274001898824546 3.103684968501748e-20
0.3287751645165897 0.06076088952380952 0.0146 0.8203499366557058 0.4887945142996236 2.690940224434799e-20
0.3287751645165897 0.06076088952380952 0.01322376122591856 0.8203499366557058 0.4887945142996236 2.690940224434799e-20
0.3287751645165898 0.06076088952380952 0 0.8203499366557053 0.4887945142996234 2.690940224434804e-20
0.3301047705263158 0.06183305602827418 0 0.8564114705335117 0.4898901641433314 2.60057954578102e-20
0.3296278986413662 0.06119234503876394 0.0004935970306513659 0.8366911625419611 0.4857389838861654 2.617530305329021e-20
0.3301047705263158 0.06183305602827418 0.001226588106130776 0.8564114705335117 0.4898901641433314 2.60057954578102e-20
0.3296278986413661 0.06119234503876392 0.01410640296934865 0.8366911625419611 0.4857389838861655 2.617530305329018e-20
0.3301047705263157 0.06183305602827415 0.0146 0.8564114705335111 0.4898901641433315 2.60057954578102e-20
0.3442100610526315 0.07127846269608909 0 1.25741082094737 0.5117736063991557 3.514343840542179e-21
0.3381060019190344 0.06628360969230217 0.007300000000000001 1.210386971151727 0.4879909369001049 8.886537317710511e-22
0.3442100610526315 0.07127846269608909 0.01203239432005922 1.25741082094737 0.5117736063991555 3.514343840542179e-21
0.3442100610526315 0.07127846269608909 0.0146 1.25741082094737 0.5117736063991555 3.514343840542182e-21
0.3328441161963791 0.06323934513005727 0.002835421695732402 0.9981468732098754 0.4917105537658611 1.6515640377488e-20
0.3345654688220631 0.064796759410438 0 0.9911454946143753 0.5012755287711084 1.936726970100782e-20
0.332844116196379 0.06323934513005723 0.01176457830426765 0.9981468732098721 0.4917105537658612 1.651564037748818e-20
0.3345654688220629 0.06479675941043792 0.0146 0.9911454946143715 0.5012755287711081 1.936726970100798e-20
0.345162045690827 0.07266149961306119 0.01361462676775615 1.370985386136601 0.5256508834769694 -9.901702009139066e-22
0.3471775175682285 0.07352281904761904 0.0146 1.366051827871408 0.5194318319694171 -9.038653367321364e-22
0.345162045690827 0.0726614996130612 0.0009853732322438542 1.370985386136603 0.5256508834769695 -9.901702009139963e-22
0.3471775175682285 0.07352281904761904 0.003071532985930775 1.366051827871408 0.5194318319694169 -9.038653367321319e-22
0.3471775175682285 0.07352281904761904 0 1.366051827871408 0.5194318319694169 -9.038653367321319e-22
0.3583153515789473 0.08157058059917346 0 1.451598651415738 0.5509459781558285 -1.051912366103716e-21
0.3544795630667912 0.07699329436814117 0.007299999999999999 1.401548647968697 0.5327991892737575 -6.481851493365023e-37
0.3583153515789473 0.08157058059917346 0.009206861582606592 1.451598651415739 0.5509459781558286 -1.051912366103714e-21
0.3583153515789473 0.08157058059917346 0.0146 1.451598651415738 0.5509459781558285 -1.051912366103717e-21
0.3604054291161994 0.0843937260377243 0.0124366179706154 1.542498397535622 0.5889490559864436 -1.173748929482916e-21
0.3643753154876417 0.08628474857142857 0.0146 1.529885604516275 0.5671689588894422 -9.514422801202156e-22
0.3604054291161994 0.0843937260377243 0.002163382029384599 1.542498397535622 0.5889490559864436 -1.173748929482915e-21
0.3643753154876417 0.08628474857142857 0.006272502711083513 1.529885604516275 0.5671689588894422 -9.514422801202153e-22
0.3643753154876417 0.08628474857142857 0 1.529885604516275 0.5671689588894422 -9.514422801202153e-22
0.3724206421052632 0.09309963712785849 0 1.560430087489878 0.5886287489052308 0
0.3695825388773118 0.08885255625386071 0.002937642939773761 1.536869055289669 0.5686668737858342 -5.092883316215373e-36
0.3724206421052632 0.09309963712785849 0.007796420810681304 1.560430087489878 0.5886287489052306 0
0.3695825388773118 0.08885255625386071 0.01166235706022624 1.53686905528967 0.5686668737858342 -5.139182255453696e-36
0.3724206421052632 0.09309963712785849 0.0146 1.560430087489879 0.5886287489052306 0
0.3750606502057897 0.09665809933761886 0.01186739990248503 1.615853353970434 0.631798768049405 0
0.3787449940205314 0.09904667809523811 0.0146 1.568098397474226 0.6001581995208347 0
0.3750606502057897 0.09665809933761885 0.00273260009751497 1.615853353970434 0.6317987680494052 0
0.3787449940205313 0.09904667809523811 0.006546163497352176 1.568098397474227 0.6001581995208352 0
0.3787449940205314 0.09904667809523812 0 1.568098397474226 0.6001581995208348 0
0.3865259326315789 0.1081432586125069 0 1.592565520303925 0.6433153092894767 -1.27566594777491e-21
0.3832336200532145 0.1020254370947107 0.003407782601460213 1.562595107423721 0.6053863197550584 -4.967357019543767e-38
0.3865259326315789 0.1081432586125069 0.0104067394592914 1.592565520303925 0.6433153092894767 -1.27566594777491e-21
0.3832336200532145 0.1020254370947107 0.01119221739853979 1.562595107423721 0.6053863197550583 0
0.386525932631579 0.1081432586125069 0.0146 1.592565520303925 0.6433153092894761 -1.275665947774917e-21
0.3878778246582328 0.1105854672139797 0.01320069358002064 1.628199731935997 0.6726897163190744 -1.446622911572138e-21
0.389610169320036 0.1118086076190476 0.0146 1.592442848944034 0.6521335428442974 -5.917682909034887e-21
0.3878778246582329 0.1105854672139797 0.001399306419979361 1.628199731935996 0.672689716319074 -1.446622911572189e-21
0.389610169320036 0.1118086076190476 0.003192408945243815 1.592442848944034 0.6521335428442976 -5.917682909034887e-21
0.389610169320036 0.1118086076190476 0 1.592442848944034 0.6521335428442976 -5.917682909034889e-21
0.3184343288829902 0.1223675786296755 0.01207975459099307 1.657576611413281 0.4943137333673162 -3.092585166636356e-21
0.3184343288829902 0.1223675786296755 0.002520245409006931 1.657576611413282 0.4943137333673161 -3.092585166636355e-21