/*--------------------------------*- C++ -*----------------------------------*\
| =========                 |                                                 |
| \\      /  F ield         | OpenFOAM: The Open Source CFD Toolbox           |
|  \\    /   O peration     | Version:  2206                                  |
|   \\  /    A nd           | Website:  www.openfoam.com                      |
|    \\/     M anipulation  |                                                 |
\*---------------------------------------------------------------------------*/
FoamFile
{
    version     2.0;
    format      ascii;
    arch        "LSB;label=32;scalar=64";
    class       surfaceScalarField;
    location    "0.4";
    object      alphaPhi0.water;
}
// * * * * * * * * * * * * * * * * * * * * * * * * * * * * * * * * * * * * * //

dimensions      [0 3 -1 0 0 0 0];

oriented        oriented;

internalField   nonuniform List<scalar> 
4432
(
3.545992033122936e-06
-3.54599217550293e-06
7.093359339095142e-06
-3.54736750095469e-06
1.059615023328973e-05
-3.502791094985667e-06
1.405519906352541e-05
-3.459049023067925e-06
1.744045142744815e-05
-3.38525254298427e-06
2.071145197396645e-05
-3.27100070590304e-06
2.383195822381792e-05
-3.120506384349763e-06
2.676470008900771e-05
-2.932741971136648e-06
2.946701456838878e-05
-2.702314554909708e-06
3.18897831107642e-05
-2.422768586988687e-06
3.397701667872632e-05
-2.087233581053953e-06
3.566523177859907e-05
-1.688215077796783e-06
3.688250724803403e-05
-1.217275401820823e-06
3.754674851163079e-05
-6.642411304157307e-07
3.757402283531474e-05
-2.727409883815432e-08
3.685191269614665e-05
7.221104810138181e-07
3.525827188422017e-05
1.593641294825368e-06
3.264221831127474e-05
2.616054207602128e-06
2.883152302329557e-05
3.810696085784114e-06
2.365346116038365e-05
5.178062922644959e-06
1.70339372979284e-05
6.619525795470769e-06
8.886657324976596e-06
8.147286901733887e-06
8.886013911827142e-06
3.592648406169488e-06
-7.13864061197119e-06
7.173532030667843e-06
-7.128251198184285e-06
1.072594227281205e-05
-7.055201411833115e-06
1.4231985958918e-05
-6.96509277433756e-06
1.765869381298383e-05
-6.811960448988824e-06
2.097193285752749e-05
-6.584239785819086e-06
2.413729204170856e-05
-6.285865584829443e-06
2.711756984249112e-05
-5.91301976836896e-06
2.987060160393084e-05
-5.455346294054927e-06
3.23481619547817e-05
-4.900328898989533e-06
3.449541421169102e-05
-4.234485783703746e-06
3.625052990524143e-05
-3.443330698019787e-06
3.754441993635691e-05
-2.511165327734539e-06
3.83006348809893e-05
-1.420455912949232e-06
3.841474757355359e-05
-1.413865353383191e-07
3.77940403040103e-05
1.342818139556368e-06
3.630222983382843e-05
3.085452303778507e-06
3.378091913860358e-05
5.137365591836687e-06
3.004093494271292e-05
7.550681121020319e-06
2.486386635682675e-05
1.035513258744529e-05
1.806336633334703e-05
1.342002774946033e-05
9.547688819506305e-06
1.666297152290515e-05
1.843346927319002e-05
3.586207944825163e-06
-1.072484808377155e-05
7.178414026162302e-06
-1.072045683177068e-05
1.075080467332959e-05
-1.062759160429988e-05
1.427320905945843e-05
-1.048749669511635e-05
1.77132606704283e-05
-1.025201158817142e-05
2.104068538149632e-05
-9.911664023636111e-06
2.422264999721408e-05
-9.467829732425055e-06
2.722223588802768e-05
-8.912605205525122e-06
2.999751352552277e-05
-8.230623504463474e-06
3.250053780986028e-05
-7.403352796197525e-06
3.467667239210292e-05
-6.410620029852988e-06
3.646421845258819e-05
-5.230876476231889e-06
3.779398847293622e-05
-3.840935107067827e-06
3.858767577359438e-05
-2.214142980798627e-06
3.876334590133259e-05
-3.170563652945558e-07
3.82168082819193e-05
1.889356228069847e-06
3.682543816185048e-05
4.476823065552964e-06
3.443972331714102e-05
7.523081226499813e-06
3.086169421577945e-05
1.112871113510514e-05
2.583738426107726e-05
1.537944364438766e-05
1.907526183149245e-05
2.018215207519887e-05
1.033626872033348e-05
2.540197189446371e-05
2.876950762028352e-05
3.597706912732958e-06
-1.432255322160519e-05
7.209047792237634e-06
-1.433179593008432e-05
1.080569421877843e-05
-1.422423622622764e-05
1.434968130976141e-05
-1.403148197187272e-05
1.781044438068815e-05
-1.371277285606144e-05
2.116044396966183e-05
-1.326166184308443e-05
2.436829286180411e-05
-1.267567691515488e-05
2.739774241243505e-05
-1.194205313970107e-05
3.020730436590913e-05
-1.104018397364421e-05
3.274935943541769e-05
-9.945406556575637e-06
3.496947965552252e-05
-8.630739156350329e-06
3.680620440298362e-05
-7.067600372208268e-06
3.819110840862774e-05
-5.225838502201491e-06
3.904908379980506e-05
-3.072117961257196e-06
3.929612856571643e-05
-5.64100755684244e-07
3.883263222439757e-05
2.352853229977376e-06
3.754935784069179e-05
5.760098375573103e-06
3.530008909331599e-05
9.772351080573349e-06
3.189189029548371e-05
1.453691112992847e-05
2.704458792387769e-05
2.022674731269399e-05
2.036223996347025e-05
2.686450201096331e-05
1.138068355002422e-05
3.438353584326229e-05
4.015136624014229e-05
3.621203672229714e-06
-1.794375265074842e-05
7.258566256451911e-06
-1.796915422018125e-05
1.088490869550352e-05
-1.785057432589138e-05
1.44568607609359e-05
-1.760342969414784e-05
1.794647967528953e-05
-1.720238746773393e-05
2.13284791568613e-05
-1.664365711076705e-05
2.457285073081897e-05
-1.592004442302791e-05
2.764427192459305e-05
-1.501347048888673e-05
3.050186655730989e-05
-1.389777507267454e-05
3.30983614964078e-05
-1.254189837439815e-05
3.537943773374513e-05
-1.091181278753542e-05
3.728363351525785e-05
-8.971794146700627e-06
3.874273308927887e-05
-6.684936706711586e-06
3.968212194826055e-05
-4.011506055061468e-06
4.002052317218462e-05
-9.025014924805912e-07
3.966989716968354e-05
2.70348026755111e-06
3.852277267149257e-05
6.907224457666451e-06
3.644550182892252e-05
1.184962385299334e-05
3.324829321477532e-05
1.773412178312107e-05
2.862906529170792e-05
2.484597724393536e-05
2.207687634944485e-05
3.341669341151787e-05
1.282915433023916e-05
4.363126603287722e-05
5.298051015801162e-05
3.656123078078162e-06
-2.159986783278017e-05
7.325614552090616e-06
-2.163863770845395e-05
1.098661559102231e-05
-2.151156731576133e-05
1.459284598692386e-05
-2.120965204549439e-05
1.811927466586126e-05
-2.07288081732964e-05
2.154272184622864e-05
-2.006709646603564e-05
2.483463108614143e-05
-1.921194608565743e-05
2.796084155701911e-05
-1.813967376027924e-05
3.088129625838595e-05
-1.681822311616571e-05
3.354917393497073e-05
-1.520977012804493e-05
3.591024857745909e-05
-1.327288244834407e-05
3.790290736484262e-05
-1.096444908134554e-05
3.945897088353097e-05
-8.240997624996368e-06
4.050552879971131e-05
-5.058062639356229e-06
4.096369255001521e-05
-1.360664673062911e-06
4.074646825144587e-05
2.920706131734922e-06
3.976371507377374e-05
7.889980394682116e-06
3.789354242271721e-05
1.371980010947392e-05
3.496315472022475e-05
2.066451344416866e-05
3.066251383801881e-05
2.914662197149513e-05
2.436466350211735e-05
3.971454767450521e-05
1.492595905880689e-05
5.306998014860575e-05
6.790645815793596e-05
3.704806229771994e-06
-2.530466183316729e-05
7.411355184831704e-06
-2.534517433685465e-05
1.111096640310394e-05
-2.521116613386425e-05
1.475668430968292e-05
-2.4855357559645e-05
1.83264403878751e-05
-2.429855194479654e-05
2.179932860455962e-05
-2.35399725619859e-05
2.514845586524369e-05
-2.256106155170538e-05
2.834108370906347e-05
-2.133229033076856e-05
3.133824037093507e-05
-1.981536928220639e-05
3.40937669274679e-05
-1.79652872777848e-05
3.655360289454763e-05
-1.573271044165163e-05
3.86557578460617e-05
-1.306659782623099e-05
4.033114884751646e-05
-9.916384443704442e-06
4.150579685928866e-05
-6.232708617137735e-06
4.210743950225237e-05
-1.962306880341796e-06
4.20578826824909e-05
2.970264898295693e-06
4.126816295230777e-05
8.679704395018194e-06
3.964702038287534e-05
1.534094890465661e-05
3.705130793708952e-05
2.326023330788519e-05
3.319924450238294e-05
3.299869301631347e-05
2.738653911585444e-05
4.552726042512927e-05
1.807884691869368e-05
6.237768538918967e-05
8.598529394106855e-05
3.771588196171666e-06
-2.90762179876606e-05
7.514399495097417e-06
-2.908795333725684e-05
1.125845481969778e-05
-2.89551889013786e-05
1.494819318440005e-05
-2.854506333988991e-05
1.856672656459275e-05
-2.791705290458995e-05
2.209603066798561e-05
-2.706924463673101e-05
2.551104994833695e-05
-2.597604952144264e-05
2.878081538893017e-05
-2.46020256453369e-05
3.186790556420953e-05
-2.29024311292308e-05
3.472737323517072e-05
-2.082472917244182e-05
3.730591720404909e-05
-1.831123204543726e-05
3.95416943067743e-05
-1.530235687480242e-05
4.136473206403196e-05
-1.173940927304428e-05
4.269892626789538e-05
-7.566895650444096e-06
4.346889587780252e-05
-2.732275125991726e-06
4.360232386214413e-05
2.836837178836016e-06
4.30300982173278e-05
9.251932150006456e-06
4.169046248462826e-05
1.668059032298227e-05
3.949787506410436e-05
2.545283148359577e-05
3.625997289797252e-05
3.623661141606885e-05
3.128877329425321e-05
5.049848109275418e-05
2.293200802905234e-05
7.073448119779509e-05
0.0001089173000328671
-9.314680295840593e-30
3.772105042092178e-31
-2.576728421659649e-28
1.79866564785731e-29
-4.193557311727295e-27
6.205607521327928e-28
-8.608837435385342e-27
2.245296222211001e-27
-9.449340724816351e-27
2.841965286058156e-27
-1.001076951498741e-26
2.394651824686018e-27
-1.693110421857673e-26
2.263701505185144e-27
-3.492631783787529e-26
3.061025905269793e-27
-8.499552256797805e-26
7.22077957215568e-27
-1.754851732400289e-25
8.429159544804544e-27
-3.372356316146682e-25
4.403317829689586e-27
-3.889069396961857e-25
-3.352715252352852e-25
-5.804710132034824e-25
-9.634655267438793e-25
-9.71841680128708e-25
-2.537469654014321e-24
-2.361543568102858e-25
-5.414646667180266e-24
-1.855572686154834e-27
-9.102405024591269e-25
-1.414506570704298e-30
-1.160451282607444e-26
-1.383957448767373e-31
-3.314702881272046e-29
-1.340841381220884e-29
-1.037537831249844e-26
1.232764752015679e-27
-6.747214499217772e-24
1.969310598136368e-24
-1.052092003302938e-22
5.909280882815262e-23
-2.314995184608948e-22
2.145752635733459e-22
-2.866705656836992e-22
2.838766738546302e-22
-3.47584467725688e-22
2.907286859760793e-22
-5.536212193549591e-22
3.012083719338363e-22
-2.035036568860525e-21
6.706860406005051e-22
-4.527334399381873e-21
1.489013978308558e-21
-7.819746415785105e-21
1.526716514322021e-21
-1.272701922955198e-20
5.921535095930283e-22
-1.459847398917119e-20
-9.690628288785657e-21
-2.032202884853487e-20
-2.273724061467972e-20
-2.211887386093574e-20
-4.651921412622287e-20
-6.691346290071978e-21
-6.94524022193459e-20
-2.037117026546129e-22
-1.745858019550375e-20
-3.102974579624826e-25
-1.009698037080153e-21
-2.88116262827403e-26
-6.387716606889309e-24
-8.396544434816406e-24
-2.609525599546594e-24
5.496623223884983e-25
-1.982031150780403e-21
8.998203325523344e-22
-4.295404456519238e-20
3.26602237810556e-20
-1.37331331734469e-19
1.57680943151265e-19
-2.106422508476769e-19
2.756709446791194e-19
-2.935207238310716e-19
3.471715699798098e-19
-5.719448279482091e-19
4.512141603301519e-19
-1.855793965996251e-18
9.704292992159203e-19
-3.861268739331909e-18
1.866333608050459e-18
-5.775865939528754e-18
1.737386954315371e-18
-7.848459586864118e-18
4.865749256089679e-19
-8.350611166858663e-18
-3.890114711573053e-18
-9.890238274625136e-18
-6.9693550275184e-18
-9.065829321210824e-18
-1.149682830137591e-17
-3.492548825114074e-18
-1.38624151430839e-17
-3.620813592725027e-19
-6.304010179600416e-18
-3.806580938191306e-21
-1.078035831605161e-18
-2.881627186750881e-21
-7.61944444760123e-20
-2.496906661867981e-19
-3.072856965314773e-23
9.43566671846257e-24
-2.848017196647484e-20
1.74106696311946e-20
-7.835480822125474e-19
7.283967677140078e-19
-3.434284215498544e-18
4.429027121410432e-18
-7.204955328038421e-18
1.039111627896836e-17
-1.327534600298113e-17
1.770201985945336e-17
-2.969024147873038e-17
3.023161200731337e-17
-7.71431308146869e-17
5.770453820012284e-17
-1.51878140138906e-16
9.042615614074665e-17
-2.109748836250904e-16
7.678054467099612e-17
-2.428436781573729e-16
1.426251683302331e-17
-2.341079254897272e-16
-6.980920452488348e-17
-2.296417338124047e-16
-9.544149945296372e-17
-2.012311212001017e-16
-1.220560201815945e-16
-1.054879191181192e-16
-1.532594423810051e-16
-2.608212562280308e-17
-1.254634304509129e-16
-1.702301879162047e-18
-4.918806377455258e-17
-1.913921195784972e-18
-1.591864913880367e-17
-5.169161933847237e-17
-1.077665912093856e-22
4.80585421476342e-23
-1.32592695944698e-19
1.091076864137695e-19
-4.040820220787304e-18
4.677013285481719e-18
-2.059129427400917e-17
3.029737077473093e-17
-5.255661817966208e-17
8.17452475021076e-17
-1.109188489268698e-16
1.640890152306838e-16
-2.361009646465195e-16
2.933538134478232e-16
-5.270770613748634e-16
4.587241560110515e-16
-7.610627408130442e-16
3.730330625754469e-16
-9.394176404855131e-16
3.306069475536773e-16
-9.212929365005009e-16
2.624564722104496e-17
-8.608595623382554e-16
-1.709647822587802e-16
-7.833971697723435e-16
-1.990518777293629e-16
-6.489961657495172e-16
-2.07705521978241e-16
-4.500461671113333e-16
-2.986652337264162e-16
-2.033337623896064e-16
-3.602011106363582e-16
-4.10288148914531e-17
-2.619601135132568e-16
-4.035152844455527e-17
-1.670297215657707e-16
-3.814400793102962e-16
-4.116250025586235e-22
1.774362336534602e-22
-7.756781847941534e-19
7.098399534107427e-19
-1.934770458720815e-17
2.743871139449972e-17
-9.099561717219551e-17
1.564599655599657e-16
-2.344491860550541e-16
4.063916483648917e-16
-4.760318718009406e-16
7.789056508074424e-16
-8.122490094270572e-16
1.161396857006617e-15
-1.086085995072824e-15
1.251511185732196e-15
-1.153435610557613e-15
8.360795893906624e-16
-1.160967137623486e-15
4.412483428099095e-16
-1.08132188414779e-15
-6.503826413589543e-18
-1.000554645995348e-15
-1.943945462845305e-16
-9.033359739789646e-16
-1.9457559458937e-16
-7.622343155617888e-16
-1.670633958667846e-16
-6.121370272375563e-16
-2.911131775391257e-16
-4.086224070687902e-16
-4.12632125242237e-16
-1.423600218281737e-16
-4.287751853692813e-16
-1.091836294418229e-16
-3.330566632195617e-16
-6.337563995212161e-16
3.565142673005588e-24
1.701517522393325e-22
-1.058430910214656e-18
9.918106310968325e-19
-4.494301580341649e-17
4.604702746746088e-17
-2.391804798100356e-16
3.046647822673399e-16
-5.162258273390945e-16
8.052932432465039e-16
-7.947826682062136e-16
1.345098445282893e-15
-1.017701410497477e-15
1.703654584592435e-15
-1.052013856740335e-15
1.606011862500356e-15
-7.378474400969499e-16
8.411331628065348e-16
-4.591374994075652e-16
2.047974370201817e-16
-4.765393472668665e-16
-2.175815453149206e-18
-5.289243742916624e-16
-3.440120390765542e-17
-4.765393424243679e-16
-4.317651512386681e-17
-4.292612085382095e-16
-3.26839241378737e-17
-4.721556651263178e-16
-8.194451983386431e-17
-4.117103397242688e-16
-2.267076846739065e-16
-1.996104789432379e-16
-4.234230492379186e-16
-1.225357639354283e-16
-3.925332143384586e-16
-7.66825427430606e-16
2.559050342007534e-23
1.473287221871612e-22
-3.082859333507237e-19
7.94369300261568e-19
-2.192484981676547e-17
4.127354603170809e-17
-1.241739448736608e-16
3.071329656244887e-16
-2.387597081784844e-16
9.172587043345087e-16
-5.080723374970556e-16
1.638401462218545e-15
-6.535510572685917e-16
1.726060954089886e-15
-4.300459957907064e-16
1.173007070812438e-15
-1.257626109312171e-16
4.86822584722829e-16
-1.240032725259992e-17
5.270235926606534e-17
-2.359207332357284e-17
1.096383008690963e-18
-5.539103905355523e-17
1.257364123693781e-17
-7.213924988421811e-17
1.408252905678559e-17
-7.575751877258832e-17
8.46824205741583e-19
-9.548207163270192e-17
3.440022085881197e-17
-2.339572775377663e-16
1.071018906505376e-16
-1.704087700005239e-16
-2.413168978210419e-16
-1.064256282852109e-16
-3.565582909190323e-16
-8.712687796881735e-16
8.125219016407311e-06
-3.720136379856286e-05
1.624688540734681e-05
-3.720954587626544e-05
2.428311138703855e-05
-3.699134039466497e-05
3.223138641683451e-05
-3.64932637712059e-05
4.00482164156175e-05
-3.573380857888308e-05
4.769208519773927e-05
-3.471303987771635e-05
5.511627286954629e-05
-3.340016518499683e-05
6.22608784405165e-05
-3.174656185027876e-05
6.905117000459485e-05
-2.969265746298346e-05
7.53962557617955e-05
-2.716975561643399e-05
8.118779213584622e-05
-2.410271699103693e-05
8.630086318325241e-05
-2.041538639767448e-05
9.059633990629578e-05
-1.603485604611618e-05
9.392939877383545e-05
-1.089993711022861e-05
9.616522218127723e-05
-4.968094699377504e-06
9.724371078293838e-05
1.758354956223405e-06
9.715235359013216e-05
9.343313329993304e-06
9.599593144630071e-05
1.783705245519472e-05
9.402804396605001e-05
2.742077338422103e-05
9.177288954933677e-05
3.849183279143647e-05
9.05988589502441e-05
5.167258996532111e-05
9.498317489059568e-05
6.635027122691537e-05
8.079550925583168e-05
0.0001231050352181667
8.338182446463084e-06
-4.553947799314666e-05
1.660765201958061e-05
-4.547894610965095e-05
2.483382136370778e-05
-4.521743949237061e-05
3.297463369778285e-05
-4.463400562581053e-05
4.100532606525531e-05
-4.376443036763707e-05
4.890067064285043e-05
-4.260831427480986e-05
5.662336552788748e-05
-4.112279110479561e-05
6.412196324547938e-05
-3.924509292651232e-05
7.133001326451653e-05
-3.690064503286085e-05
7.816305716338851e-05
-3.400274327062225e-05
8.451603861914526e-05
-3.045565039455295e-05
9.026813599611294e-05
-2.61674458171318e-05
9.52857535378005e-05
-2.10524467754569e-05
9.944675635628291e-05
-1.506092346973618e-05
0.0001026730846255235
-8.194417860323489e-06
0.0001050426643083619
-6.112375520746857e-07
0.0001058266540616386
8.55932972271018e-06
0.0001055783874912405
1.808534308695735e-05
0.0001049821087160332
2.801709644507074e-05
0.0001050765916828558
3.839741792956952e-05
0.0001070279195398558
4.972135760349274e-05
0.0001113021984795256
6.207612502399087e-05
7.616734297163883e-05
0.000115930510568945
7.642707637298697e-06
-2.85544022972934e-05
1.510788024023673e-05
-2.877878313062732e-05
2.246482744678374e-05
-2.843038980895361e-05
2.965129696213833e-05
-2.769852290597127e-05
3.663755967966471e-05
-2.669791475821525e-05
4.340441584541701e-05
-2.547537549325506e-05
4.99469123637575e-05
-2.406103844723404e-05
5.629109507068908e-05
-2.249793085857107e-05
6.250875313671405e-05
-2.083217646980266e-05
6.873375286353811e-05
-1.909213107203162e-05
7.490998545582274e-05
-1.729759874070271e-05
8.151934920938239e-05
-1.540389673896726e-05
8.842446263399052e-05
-1.326466946795731e-05
9.552793669035436e-05
-1.064193066714164e-05
0.0001024338298215527
-7.131086242680992e-06
0.0001086904621266137
-2.354490398052223e-06
0.0001122684560878968
5.400945767827449e-06
0.0001128157494689019
1.753804385013093e-05
0.0001130516364519746
2.778121238647582e-05
0.0001142101252820332
3.723895832259886e-05
0.0001162272733510882
4.770428931152702e-05
0.0001195432705999374
5.876027319862668e-05
6.971344019074228e-05
0.0001259974097731805
1.346247951329868e-06
2.165276331383214e-25
2.658325290940562e-06
-8.39843511397972e-23
3.857964918392738e-06
-1.326286822326221e-20
4.926763208446034e-06
-5.687982074904522e-20
5.850040363639653e-06
-6.922787410501824e-19
6.625212670160548e-06
-6.496243025501198e-17
7.276920860457564e-06
-3.869171532704632e-17
7.8639643739454e-06
-8.928639227761143e-17
8.484487545031084e-06
-1.184395954501238e-16
9.31577569166612e-06
-1.956624169711532e-15
1.031037931518149e-05
-1.861734572203337e-15
1.218178028107697e-05
-3.443683251953038e-14
1.51099112766536e-05
-3.629422540930772e-20
1.982489198017401e-05
4.016248380559036e-31
2.729879450516355e-05
2.534486366249458e-27
3.901133897358097e-05
-2.963296513684588e-15
5.767476297201751e-05
1.678669934180524e-08
8.47425853550725e-05
1.427001817522385e-06
0.0001084917893629041
8.874523935716945e-06
0.0001185547562566136
2.468300184947049e-05
0.0001235408525731866
4.271799313476799e-05
0.0001270063938913016
5.529459197245204e-05
6.37398721630564e-05
0.0001329800284569832
-2.143223274651889e-26
4.011830978152467e-25
-2.992238183945353e-41
-8.400578337254372e-23
5.243522734144054e-39
-1.326286822326221e-20
-1.203889170895282e-37
-5.687982074904524e-20
2.901260360456438e-37
-6.922787410501823e-19
2.168980265282459e-34
-6.496243025501195e-17
-1.773155316167832e-34
-3.869171532704633e-17
5.662400976219341e-36
-8.928639227761143e-17
5.122313224722354e-34
-1.184395954501238e-16
3.132254149666038e-33
-1.956624169711532e-15
-3.397131622155472e-34
-1.861734572203337e-15
9.765784074958097e-32
-3.443683251953037e-14
-1.106405772366986e-39
-3.629422540919453e-20
-1.247059604688364e-30
2.505022376000183e-28
-1.13913843496588e-26
-1.058319816148513e-30
-3.644302387470443e-24
-2.963296510051676e-15
1.678735599198388e-08
-2.547698586669925e-16
1.721707560258655e-06
-7.213673590198274e-15
1.071777738279189e-05
-1.177735785686061e-16
3.304817802886004e-05
0
6.856874433645715e-05
1.269384467240543e-07
0.0001057432237703771
8.282281275847336e-06
2.777616367291737e-05
0.0001319964381560767
-1.900538066775525e-26
1.413129855020462e-25
2.126179849404564e-23
-4.170976586408842e-22
4.873972066755977e-21
-4.757869382317914e-20
2.924538643167512e-20
-1.38639768764327e-19
5.311575587647157e-19
-6.939477764800123e-18
3.340724298976245e-17
-2.456559302275678e-16
2.471808028229718e-17
-3.336955493384235e-17
8.597378893879765e-17
-3.286821658447297e-16
1.428001490645135e-16
-4.597399817140828e-16
1.604423212841535e-15
-1.470843583101035e-15
1.738192814839775e-15
-1.49607444756403e-16
4.030056807405935e-14
-3.752947814444823e-17
2.134711757642418e-20
4.037581189035727e-14
-7.70506433308829e-28
2.134715346573255e-20
3.888635984813688e-18
-3.888635984969753e-18
4.692749093867319e-14
-1.973987775408958e-13
7.136596873437801e-15
6.634192056832179e-16
1.509381850858563e-24
-7.707667391891802e-17
1.154878523130899e-24
-1.177735328928616e-16
-7.329258530980679e-24
-3.340855576677893e-22
1.272033047476301e-07
-2.588890409627134e-10
6.546647211651264e-06
-1.30486821045531e-09
-8.804632486111884e-11
2.798458909145035e-05
-5.013625243859346e-27
-5.474323172434991e-25
2.292840683361687e-22
-2.406148244390879e-21
3.786245827813356e-20
-1.777462177312813e-19
5.823399934850419e-19
-2.779807154003533e-18
5.779174748681131e-17
-6.298675342378822e-16
1.365193308596532e-16
-2.712038685303495e-16
3.46072510505578e-16
-1.021942896525339e-14
4.356457687008876e-15
-5.652794249539894e-14
3.532963330006837e-16
1.782688137989928e-16
1.277190392407634e-15
5.206125140332123e-16
1.347161800080442e-16
-4.885054465658852e-17
1.387405957730502e-16
-4.2089577769506e-17
4.443212171466201e-10
-5.720198885297809e-10
6.603017095467214e-10
-1.629008898295711e-09
3.974609101297093e-11
-3.056573870944852e-10
-2.974808739935302e-15
-4.245945150583208e-13
-2.306251400064307e-15
1.35690297741822e-26
6.241036366325009e-15
1.007359631683618e-15
1.522209659331728e-15
4.176915542748714e-16
1.690583813016697e-16
4.314009614389679e-17
1.266973536910342e-09
5.538195217580977e-10
2.62916922882568e-15
-3.78568086772809e-11
-8.804369569220541e-11
-4.416469015797705e-23
1.79065771283156e-26
-1.899874984055441e-24
6.411545967325308e-22
-5.060688080234784e-21
1.030404068439603e-19
-5.186769097673593e-19
8.226362991569224e-18
-7.768046012769975e-17
6.299363732730849e-16
-6.695897671067021e-15
6.735204603787418e-16
-3.05838510322702e-16
6.510353564455513e-14
-6.024803338246113e-13
6.010381832759867e-14
-3.055152756999447e-13
3.566847148943963e-17
6.025209419539038e-14
4.011074589296392e-17
5.1661278244234e-16
4.422710096162801e-17
-5.298620998131476e-17
3.086179336904907e-12
-3.086177493557438e-12
3.389642390305816e-09
-2.372203076516888e-09
3.526309121652497e-09
-2.612529212684726e-09
2.776878293067711e-10
-4.695484573023296e-10
-3.678358735687092e-14
3.423898227261907e-11
2.046995807714504e-25
-3.678358735744122e-14
2.282484986394393e-25
1.010727526141374e-15
2.288673038912705e-25
4.187308598166656e-16
5.719892966206109e-19
4.264072140432575e-17
7.136054984913042e-10
5.055665977269978e-11
8.356845684791782e-10
1.583544104401404e-10
1.139025675570186e-10
9.006969801234225e-10
1.091381973890184e-25
-5.258083044396053e-24
1.063788670076538e-21
-9.919383642015736e-21
3.863467083045977e-19
-4.335283998673183e-18
8.968275986110866e-17
-8.276825544858841e-16
2.342765965544062e-15
-1.812774404463184e-14
4.261210834130715e-15
-1.670273286754817e-15
4.426573484384783e-13
-1.218700449878266e-12
7.099297428618357e-13
-2.68051540670294e-13
6.902640349716962e-12
-1.068357192507988e-10
1.949079453257431e-12
-4.327069849961691e-11
1.140297525112337e-12
-1.637034009549734e-12
1.399937475747854e-10
-4.621456500693395e-12
3.335142319124407e-09
-1.37816089541344e-09
2.136213671437952e-09
-5.676696856329924e-10
8.040785463632627e-10
-2.405546898178281e-10
4.482499552611004e-10
-6.453212696095007e-10
9.223361021840417e-10
-1.003263346717145e-09
9.631834017633615e-10
-4.948826899288298e-10
5.519087478866852e-09
1.21552800238741e-11
1.225882322760258e-08
2.458748560130359e-10
1.379124051515858e-08
5.704896927260134e-10
-1.206938541408987e-10
1.407431404792956e-10
2.813399013586404e-15
-1.300347255292602e-11
1.94874842599947e-25
-9.305253570620413e-24
2.392602045330362e-21
-5.527728475468511e-20
2.502258963345104e-18
-3.87590555270539e-17
2.972962186000676e-16
-2.695290674707697e-15
2.98177229762709e-15
-2.378900874961098e-14
2.666631065034343e-16
-4.069612494682928e-16
3.737556986814874e-13
-9.667279100429946e-13
4.823436731384203e-12
-1.2546492564548e-11
3.271038774028256e-11
-1.202497931895625e-10
6.551498476863802e-12
-9.495478815184401e-11
3.61587415237451e-12
-1.120736143761513e-11
3.835549345107415e-12
-1.377349195057153e-13
7.633411217211504e-11
-5.250464642128242e-12
8.444228878610078e-10
-1.124416340923004e-12
4.608679918740775e-09
-2.609258738667125e-09
5.805884326933669e-09
-2.389820762905057e-09
7.062462759021926e-09
-2.968320644575519e-09
8.073688207274385e-09
-7.94770487603266e-10
7.626610670282566e-09
-2.482740333670408e-10
8.669116896177185e-09
-8.550837790070739e-11
8.458135700902987e-10
-1.710307084206668e-12
-2.820534115962199e-15
-4.655654691202524e-20
-3.191884420958807e-20
5.119138951757088e-20
3.010872717779259e-25
-3.379780498783095e-23
1.095550654692079e-20
-4.411176023556173e-19
6.279414868042305e-18
-1.237947306654168e-16
1.741515201571986e-16
-3.992055122131681e-15
1.778211590368748e-15
-2.336725450711281e-14
1.782621336395433e-15
-4.120595194610718e-16
1.587320949501926e-12
-3.451948638497755e-12
5.454034857186404e-12
-4.694263508685617e-11
1.197216351037633e-11
-1.412246233100245e-10
2.532811489454034e-12
-3.916358468221691e-11
-2.482579152861632e-13
-7.212978992327588e-14
2.287432884323522e-17
-3.864577268280408e-13
2.599525189395498e-17
-5.250025959237389e-12
4.249970841619844e-11
-4.362695803640551e-11
9.015952965392555e-10
-2.573407412737787e-10
1.70263595558481e-09
-7.928300400398325e-10
1.237470849137352e-09
-8.809346618974233e-24
7.580054624582139e-10
-1.259816034742167e-22
9.819378220846244e-11
-2.259665286222574e-22
1.710307068831921e-12
-7.111920550336066e-22
1.139924863122555e-20
-6.536817611695475e-21
1.508866661229461e-20
-2.873167099253942e-20
-1.13141848323252e-19
6.705748007032117e-19
8.081432239777459e-25
-3.339901735877159e-22
1.393227720130961e-20
-1.395016927333705e-18
2.8474994057876e-18
-2.007693225744502e-16
6.322641750375506e-17
-4.027399959108803e-15
1.800682122954231e-16
-1.793821898888062e-14
1.76011625155038e-16
-4.074101427093584e-16
-4.128997558320343e-14
-1.557887967831023e-11
-2.694095216896576e-12
-7.229313691053596e-11
-2.344925326655989e-12
-1.671225931814687e-12
-8.480951543734901e-15
-1.262804634863686e-12
-8.060543321892276e-14
-9.061399296800026e-31
2.941522732140621e-13
-1.062162982272344e-12
-1.248466992988307e-11
-3.590043360156049e-12
1.905952366423869e-12
-6.45423308543023e-19
-2.554347889073539e-10
-2.538831286807267e-26
-1.243586867972299e-25
-6.097721016656685e-24
-3.821433704982856e-42
-8.933705305771462e-24
1.413227435496596e-41
-1.259816034742167e-22
1.752407023846284e-40
-2.259665286222573e-22
1.153605953099906e-37
-7.111920550336067e-22
1.677538635983044e-20
-3.799520175097209e-21
9.850184920459257e-20
-2.650657909984285e-20
-1.589489006650698e-19
5.564474817625215e-19
-5.660134701903544e-23
-1.411155148088223e-21
-1.371122060648587e-19
-2.21988917276401e-18
-2.849551851956548e-17
-2.050066102587872e-16
-4.605115799314803e-16
-2.940632615336747e-15
2.748104079594635e-16
-5.519359104747132e-15
1.302455857313784e-13
-1.303792038986001e-13
-3.57400403905275e-12
-1.913115780017986e-11
-6.875955861860633e-14
-6.679508609360087e-11
-1.597594384261552e-31
-1.739985490433293e-12
-9.536018970713713e-32
-1.482686120808912e-12
0
7.916354235580436e-33
-1.166188254476566e-12
-9.537674188563786e-15
-4.662824837910177e-19
-5.208633261401013e-16
-4.565539432532405e-22
-2.421354624111256e-18
-2.057286354165661e-26
-4.574738332977665e-22
-4.547983898434937e-24
-6.556021828170873e-25
-1.46989054920775e-23
-1.372010615485832e-23
1.443499814489936e-23
-1.077458452050175e-22
1.237659349514667e-22
-6.970906868169729e-23
9.166996199851673e-22
-1.19436117755696e-22
6.132518030108238e-21
-2.123121161507899e-21
5.794921221917099e-20
-2.161005841443262e-20
-1.088801421540711e-19
3.47444924039779e-19
-3.288943815257198e-22
-2.537328093676807e-21
-6.414522371272012e-19
-2.173137813095735e-18
-4.712487442256349e-17
-1.349823872471401e-16
-1.517918281282424e-16
-9.941051196969224e-16
7.831368890880588e-15
-1.132841407708179e-14
-7.675962707611846e-13
-3.123419273338041e-13
-3.367507403672248e-12
-2.776170725208599e-14
-1.419631513002489e-12
-3.299641079450813e-12
-7.554147107546356e-13
-1.502546547503245e-12
-4.003543222667114e-15
-4.221827039789757e-13
1.769780268241354e-32
-4.003543222667113e-15
2.372293365024473e-33
-9.537674188563787e-15
-9.943926975380797e-19
-5.198689334425632e-16
-6.357490319803508e-22
-1.697877649540561e-18
-4.091895211130473e-25
-5.195649455371999e-22
-1.260783723048659e-24
-1.106263581831167e-24
-1.780641580127959e-23
-9.909429657817146e-25
4.534065786393137e-24
-3.938277369333151e-24
1.303368926342244e-23
-2.356534292703651e-24
6.362575363835437e-23
-5.02399467950953e-23
2.302619970169162e-21
-1.350344656323749e-21
2.655926853087064e-20
-1.077827293280537e-20
-5.256036695825238e-20