/*--------------------------------*- C++ -*----------------------------------*\
| =========                 |                                                 |
| \\      /  F ield         | OpenFOAM: The Open Source CFD Toolbox           |
|  \\    /   O peration     | Version:  2206                                  |
|   \\  /    A nd           | Website:  www.openfoam.com                      |
|    \\/     M anipulation  |                                                 |
\*---------------------------------------------------------------------------*/
FoamFile
{
    version     2.0;
    format      ascii;
    arch        "LSB;label=32;scalar=64";
    class       volScalarField;
    location    "0.4";
    object      alpha.water;
}
// * * * * * * * * * * * * * * * * * * * * * * * * * * * * * * * * * * * * * //

dimensions      [0 0 0 0 0 0 0];

internalField   nonuniform List<scalar> 
2268
(
1
1
1
1
1
1
1
1
1
1
1
1
1
1
1
1
1
1
1
1
1
1
0.999935699758478
1
1
1
1
1
1
1
1
1
1
1
1
1
1
1
1
1
1
1
1
1
1
0.9999286888367812
1
1
1
1
1
1
1
1
1
1
1
1
1
1
1
1
1
1
1
1
1
1
0.9999286751046691
1
1
1
1
1
1
1
1
1
1
1
1
1
1
1
1
1
1
1
1
1
1
0.999966683010525
1
1
1
1
1
1
1
1
1
1
1
1
1
1
1
1
1
1
1
1
1
1
1
1
1
1
1
1
1
1
1
1
1
1
1
1
1
1
1
1
1
1
1
1
1
1
1
1
1
1
1
1
1
1
1
1
1
1
1
1
1
1
1
1
1
1
1
1
1
1
1
1
1
1
1
1
1
1
1
1
1
1
1
1
1
1
1
1
1
1
1
1
4.048314466475416e-26
1.156096663334817e-24
3.566863061909483e-23
1.189287450498355e-22
1.413431889562895e-22
1.112799897873987e-22
1.054481413753558e-22
1.535491564500631e-22
4.423824520892496e-22
8.576509686851859e-22
1.578806652161359e-21
2.640062874351586e-21
3.632609882712609e-21
6.910706585295798e-21
1.016885743067603e-20
1.480690888947517e-21
1.553297064876719e-23
3.253987575010545e-26
1.222053479348412e-26
3.207464719203237e-23
2.955372309989256e-20
8.038765518719855e-19
2.724132363404719e-18
3.399132184330786e-18
3.248366978496786e-18
3.308229221759275e-18
8.439594540727038e-18
2.232281646503208e-17
3.889186338086506e-17
6.177430800783928e-17
9.399888670822024e-17
1.211541379095683e-16
1.749109712981421e-16
1.911052428884314e-16
3.646807339146955e-17
1.51036706456382e-18
6.43152901219048e-21
6.540541137084475e-21
9.104860298192969e-21
8.761019302228035e-18
2.961827082843448e-16
1.354594756459083e-15
2.215562881417419e-15
2.564543816441813e-15
3.262976891159999e-15
7.84354079867471e-15
1.833998339855376e-14
2.942038154853951e-14
4.045182589761621e-14
5.29389481115738e-14
6.054272495851083e-14
7.136002953911387e-14
6.083008749174395e-14
1.82600047511205e-14
2.225453854318768e-15
9.631804693752285e-17
2.26404884316988e-16
1.261865506354867e-19
1.322933116803188e-16
5.302074385330839e-15
3.114749151807449e-14
6.794810445476617e-14
1.039920837120081e-13
1.690331857059937e-13
3.525315721370605e-13
7.032629553624598e-13
1.073643880163523e-12
1.337664117395551e-12
1.495218797988869e-12
1.526123829338788e-12
1.557240222286537e-12
1.196352692192525e-12
5.743228954790873e-13
1.525116643980367e-13
2.971793467197104e-14
6.519763196561969e-14
5.428991465422769e-19
6.517421117258395e-16
2.819876118863434e-14
1.861435369060618e-13
4.747179173409527e-13
8.466480098357715e-13
1.422663994177352e-12
2.532261246178452e-12
4.218319902698193e-12
5.047461548382646e-12
5.61034330546266e-12
5.677800318200899e-12
5.504447527311219e-12
4.975024092731398e-12
3.96031323521723e-12
2.712110069602232e-12
1.269963134557866e-12
5.350501136209595e-13
7.842231554373702e-13
2.990316720130393e-18
4.330897815159685e-15
1.547449177073547e-13
8.984590049390686e-13
2.240179796065217e-12
3.931627020502919e-12
5.744479176880498e-12
7.215654382198893e-12
7.79762747453688e-12
7.664721824393404e-12
7.363298319648407e-12
7.236150109016997e-12
7.155844078164069e-12
6.161644526520199e-12
5.103294672545933e-12
4.170700126399246e-12
2.850886215252858e-12
1.593448039919103e-12
1.610541064666822e-12
1.345441213909086e-18
6.986628078240908e-15
3.513995403430987e-13
2.58087615684952e-12
6.451146527941831e-12
9.286381595855161e-12
1.039580024004743e-11
1.022718035884305e-11
7.52476862026365e-12
5.021454324420471e-12
3.69517825208332e-12
4.308682535747378e-12
4.70438441253929e-12
3.990094878385566e-12
3.566793372696999e-12
3.964630835239821e-12
3.346607526797277e-12
2.023616321249717e-12
1.772711922621633e-12
1.340535132573882e-18
3.812575943065121e-15
2.184824516092788e-13
1.848887810521275e-12
4.941651190178107e-12
7.272055539637707e-12
1.020776194091179e-11
8.480086459088047e-12
3.53425965913185e-12
1.010327305589218e-12
1.968697114109141e-13
5.6287262946903e-13
8.959611438629966e-13
9.918674067272344e-13
7.809817311537127e-13
1.325340936856932e-12
2.511572413814068e-12
2.030567020165477e-12
1.781350124288504e-12
1
1
1
1
1
1
1
1
1
1
1
1
1
1
1
1
1
1
1
1
1
1
1
1
1
1
1
1
1
1
1
1
1
1
1
1
1
1
1
1
1
1
1
1
1
0.9999999559316365
0.8806060095272368
0.8836759333846801
0.8818501042441889
0.8782280471255298
0.8733584586746586
0.8674747205476322
0.8609867858396146
0.8546102301376292
0.8493588791506739
0.8464754083124577
0.847971071120741
0.8551588344537039
0.8698535811853698
0.8930690070775088
0.9240150380680598
0.9582151065539353
0.9962783581681115
1
1
1
1
1
0.9999999492907753
0.1406663078646418
0.1449741317274685
0.1427398229954512
0.1386923396752584
0.1333683410061178
0.1271099053178455
0.1204578322926512
0.1141647556493081
0.1091203800149282
0.1062858380355644
0.1072208520191457
0.1132189060412069
0.126479674797855
0.1502558060956301
0.1889096708154643
0.2456852067430103
0.3371474306609906
0.5086012172568022
0.7373942587080335
0.9595004827575259
1
1
1
-3.398392025747723e-21
-2.202883975912241e-36
-3.1619961558203e-34
3.668633116593764e-34
-2.828874646004766e-32
-4.477196521786602e-30
-9.660632795186894e-31
9.065475185850298e-32
-1.931309279786339e-30
4.115534562190684e-29
-4.232306872157823e-30
-1.182929915638129e-27
8.891654932241816e-34
-1.082646093773016e-25
-1.338353272887364e-22
-1.087853819249652e-28
3.043729772165046e-20
0.007317210610537757
0.04586921276041177
0.1489876372912488
0.3397258957982758
0.6067093673108485
0.8517002885387195
-5.577610644908301e-21
1.311241377318772e-18
1.982349623386467e-16
8.292365843655294e-16
1.208604115625246e-14
9.999693457612223e-13
5.759217844215656e-13
1.439660936856804e-12
2.029648534206681e-12
2.233461990565926e-11
2.404021399394301e-11
5.068994062038389e-10
9.183562231776533e-16
-2.250241538213355e-23
-1.678103786718347e-25
6.36787388908152e-10
1.042397958373966e-10
1.481971696959519e-20
-2.172376070252387e-21
2.869933972059579e-19
-4.973753057555367e-20
0.0241574263713315
0.1154811360525908
-1.627221218495887e-21
1.597644993429135e-17
1.596879311013246e-15
1.722859821242467e-14
1.720421316473548e-12
3.164284093467072e-12
9.695400116722038e-12
1.125643924249031e-10
7.845289373973297e-12
2.007571202409289e-11
2.100035983148892e-12
7.673000980618507e-13
3.303111944240889e-06
9.283011547782815e-06
3.175328103273138e-06
9.200045410419474e-08
2.432749814451432e-21
7.25498309322571e-11
2.066800036723633e-11
2.497225850573022e-12
1.20970293820346e-05
9.095285564682796e-11
2.29167724481151e-19
7.49527105960906e-21
4.905678724846681e-17
4.723684362864498e-15
2.763452639808868e-13
3.010894822202671e-11
3.18427905449088e-12
2.102729496142287e-09
1.746855886416205e-09
7.673000961606951e-13
7.673000961727729e-13
7.67300096161243e-13
7.673000961726147e-13
3.775698338857154e-05
5.93313315887269e-05
3.439238506590497e-05
2.190652640093634e-07
2.575079805112704e-21
2.433108426464625e-21
2.575841658614865e-21
2.434202052617042e-21
3.877763076344278e-06
6.984508531015519e-06
7.35709764616599e-06
4.688411034618885e-20
9.53435965207734e-17
1.973104926849589e-14
3.609145267415204e-12
1.233937295343287e-10
3.187607327309881e-12
1.056423567865665e-08
3.464623962107535e-09
2.339413084618879e-07
1.264940680551268e-07
9.177135766348483e-10
7.673000961548309e-13
4.973708121903584e-05
5.901406289272576e-05
4.065989443796633e-05
8.921247119500366e-06
1.357691394126806e-05
8.48156623905457e-06
1.204285141896264e-05
0.0001269430623540506
0.0001331137981119228
3.309783059665753e-05
4.337964789747091e-09
9.981317633382975e-20
2.77719446459926e-16
1.748260969962049e-13
1.663568283528945e-11
2.130419467976713e-10
1.780227143033093e-11
1.243701164686027e-08
6.586882117029369e-09
1.478521392303194e-06
1.084256828589358e-06
7.112967404952575e-08
7.059653046105709e-08
1.400905947816834e-06
4.45607070016525e-07
5.332988946041675e-05
9.036157108413423e-05
0.0001450581944150856
0.000144792149651937
0.0001450581944150856
0.000144792149651937
8.267692273232651e-05
1.253753043630162e-06
1.336060525343829e-15
2.190207717924191e-19
2.061810797019541e-15
7.838101302417723e-13
3.343738243597586e-11
2.394709796761715e-10
4.072319783028823e-12
1.247190989899739e-08
3.566186743470187e-07
1.483946208201718e-06
1.118761789167289e-06
1.496736253772354e-07
3.235356187381295e-12
3.069690913522041e-12
4.141668375857688e-12
7.065832614812781e-05
9.75937645863823e-05
9.212452746272848e-05
6.506618942412236e-05
9.071909382291497e-06
4.668165928620962e-08
2.059914285671447e-16
2.135852807726017e-16
4.893755185986239e-15
1.509715154996885e-18
8.932174278545725e-15
1.624572348984329e-12
4.061135926790956e-11
2.304723465533107e-10
4.072098623222431e-12
9.219157885707669e-08
6.647060720625999e-07
1.131119057903432e-06
3.023667801447414e-08
8.724648922775418e-27
8.637684221743567e-09
7.185870710946678e-08
9.84191942358105e-07
6.409453313074665e-22
2.693376340158271e-05
2.362667015957056e-36
2.115639327192598e-36
-8.013210072859939e-36
-1.835821252006794e-40
1.986757379320831e-16
9.446950325858774e-16
4.577615865264741e-15
8.663517462546705e-18
1.848058266985386e-14
2.115422925604789e-12
4.05161216837916e-11
1.289288471423927e-10
4.072319783028868e-12
1.83887917506463e-07
6.299206085050758e-07
-2.953374589724008e-27
8.243624833159719e-11
6.55703106207986e-27
1.748698774234e-08
5.545686999891298e-08
1.48929898305316e-14
9.797251057059782e-22
6.367070759500639e-22
2.876629049650451e-19
3.404175612061004e-18
6.016469094352447e-18
2.065673301030589e-17
8.723541824390471e-17
5.942527596391369e-16
3.130999171000201e-15
2.155648827002372e-17
2.373651446849209e-14
2.127325912860865e-12
2.151798115729431e-11
5.471370835045931e-11
2.409380079141498e-09
1.501593451763487e-07
1.786915374209528e-07
1.568977949543865e-08
1.525338084955179e-08
-4.037837519011547e-28
3.596121322675347e-32
-3.438468166918094e-29
3.113165437148566e-14
1.102443294392402e-17
1.81024686926509e-20
3.912586753447922e-19
2.280153078159531e-18
1.024280908340913e-18
1.844611531642789e-18
3.411841512975616e-17
3.120119025992067e-16
1.355161900519653e-15
2.953650548166943e-17
2.201030786145885e-14
9.399937266149159e-13
8.385287942660129e-12
1.409643072483623e-10
3.169411123366588e-09
2.380785629236931e-11
2.727287554212458e-11
1.791408778001999e-08
2.246223705524475e-09
6.727742001553327e-11
1.581121836218538e-10
9.365978906249679e-12
3.240351787705449e-14
1.286996140833034e-17
5.233742721994419e-20
1.116438461859131e-20
4.282767206579057e-20
2.575118288356078e-20
6.558397227270252e-19
1.643819619983126e-17
1.14302241657893e-16
5.170200047402302e-16
2.731291847507209e-17
7.071491375805862e-15
2.081528319797232e-13
6.375299493264334e-12
1.276967677062325e-10
3.677575356428206e-10
2.437168094873657e-11
1.088601177839871e-09
8.688648772828051e-09
5.301103039946258e-10
5.492786479044467e-10
2.26825247303271e-10
1.438456719771631e-11
1.037428505081628e-16
1.882531540667032e-16
1.671234022605884e-19
3.089050939560234e-23
1.780409566266603e-22
2.608784048097348e-21
2.372813057073858e-19
4.670123542054791e-18
3.924845499454554e-17
2.090542044764973e-16
8.919581038772674e-18
1.139721643811162e-15
6.798595742824865e-14
4.338781163294715e-12
2.19682748562465e-11
2.108726874921442e-11
2.61344170584811e-11
9.747208904294838e-11
9.446923374240034e-11
6.869498293978503e-10
6.608396968231597e-10
2.260857227794922e-10
1.220661561461375e-11
1.033238443332467e-16
1.198161769132651e-15
2.066487219829079e-19
7.295750170093704e-24
3.023665676223706e-23
6.775496157375079e-22
5.095244466278024e-20
1.237153405584869e-18
1.38242571465847e-17
7.618528193010955e-17
1.214929446641147e-18
1.337646171334326e-16
1.867135270664713e-14
1.098051401833578e-12
7.132759553085704e-12
1.525564712964213e-11
4.155795865752985e-11
2.212495087081761e-10
5.138269900397194e-10
6.872855916701869e-10
5.50374153265745e-10
1.146665807274862e-10
5.693289376803081e-12
4.328960522053086e-15
2.116990672269648e-15
7.590302748989497e-20
7.894297810524296e-25
1.771999441864572e-24
8.376739811939355e-23
8.051154156781475e-21
2.834646498780415e-19
4.313072378643014e-18
2.075303985293709e-17
7.864287130299904e-20
1.617533868909944e-17
3.236274450226518e-15
1.513632304872674e-13
1.350634875159534e-12
5.372421352329994e-12
4.115129549749669e-11
2.150017009136819e-10
4.378249829251272e-10
4.828677491257273e-10
1.805989872672231e-10
2.651037694936491e-11
1.775814465238012e-12
2.520308227711797e-14
2.196017970676778e-15
-2.51313973791094e-45
7.558936050745756e-26
7.069627557180543e-25
7.71751581882428e-24
1.069821775507808e-21
7.199161448777479e-20
1.076454306448634e-18
3.844340271763359e-18
2.226479667891818e-21
4.822213576570848e-18
6.340393434018513e-16
1.228597186944626e-14
1.061861437724045e-13
9.415353806236241e-13
1.482060743048114e-11
6.520789745450454e-11
9.871539122241023e-11
9.506771376834551e-11
3.253888406463901e-11
4.653958551134595e-12
4.21416843629249e-13
3.039624086850942e-14
2.086390334893083e-15
2.213448246276926e-44
1.157379027710232e-25
4.983193267109645e-25
1.02683034136344e-24
2.448514125600302e-22
1.648651717993985e-20
1.654904810135608e-19
4.272564899490747e-19
4.24446130585102e-22
1.392745163206711e-18
1.038614835047679e-16
9.689285869874157e-16
5.130753710017683e-15
1.290335825579924e-13
2.470009516182084e-12
8.682747323148561e-12
1.12104373079833e-11
9.990531649819023e-12
4.170774436787996e-12
6.458349954323915e-13
8.679925227033547e-14
1.84064179236635e-14
1.418010678632354e-15
-5.148511166419431e-44
5.681695596096412e-26
1.197173484453188e-25
2.562489638268684e-25
4.533569707284582e-23
1.845598959563965e-21
1.302407411513005e-20
2.478383664667033e-20
7.805426392502908e-25
9.416212291034127e-21
2.855807274152365e-18
8.078844762164245e-17
8.533923038761658e-16
1.989322312877047e-14
2.464189467329319e-13
7.382024403771387e-13
9.437001845388348e-13
8.129654366827772e-13
3.31146491853584e-13
7.22100984369067e-14
1.621709205767717e-14
4.456010892995245e-15
5.828856896332591e-16
-1.267872207420877e-44
6.287953871494919e-27
7.630145365574669e-27
7.518924757391605e-27
1.505686438391464e-24
6.074048787652455e-23
2.882898469418535e-22
3.607154554983114e-22
3.309458067166025e-26
3.930577817064425e-22
1.099295778012861e-19
2.958247138306269e-18
3.850080160408024e-17
1.14156025597726e-15
1.199004720140113e-14
3.099881439971632e-14
3.707924515193016e-14
3.00622982704522e-14
1.477257884256959e-14
6.254883548590846e-15
2.659133615006015e-15
7.739131166999922e-16
1.394082376067538e-16
-4.274136657548209e-29
-2.346345787815569e-48
3.126127280249209e-30
3.854784153196883e-30
2.199474736950943e-30
4.148765205120118e-31
2.380615219361745e-32
-3.844381423768674e-52
6.380964376180603e-30
8.369086205348959e-26
5.131574577906939e-23
2.244397764422382e-20
2.471075997221306e-18
2.370149820405148e-17
4.376397118329678e-17
2.697964406381554e-17
4.534768833981547e-18
6.199221068926163e-17
2.655358255760841e-16
4.116048924418784e-16
3.82867822353234e-16
1.126449900579837e-16
1.639444923922353e-17
-1.153125756333192e-29
-7.635782818756999e-31
-3.845259190934504e-32
-3.26119723300063e-33
5.731034876472088e-34
3.482395886441127e-34
-5.101973703520641e-36
9.446867143975555e-35
-1.584702417875092e-30
-1.650897871064262e-29
-8.452577351030706e-29
-2.649151029850683e-28
-4.847650499184492e-28
-5.43966167225994e-41
1.560746127079308e-22
1.080749630045499e-19
3.54028652049988e-18
1.206362387407936e-17
1.908727131329476e-17
2.403508985284596e-17
2.295952845299723e-17
9.297361038582914e-18
6.513207413565173e-19
-2.471885937108408e-30
-1.480438715401288e-31
-1.184075083995837e-32
-6.315012957355298e-33
-2.626739923771848e-33
-8.042596399159359e-34
-1.712958918305609e-34
-2.291198144212438e-35
-1.399387809375288e-31
-1.658209352544398e-30
-9.660140140839942e-30
-3.555798900926807e-29
-9.319958977353704e-29
-1.85342884362943e-28
-2.906106097538791e-28
-3.673284591705676e-28
-3.789714087849782e-28
-3.203343092558362e-28
-2.206767197276024e-28
-1.216132470980913e-28
-5.170922772459239e-29
-1.615683912251393e-29
-3.408540292153575e-30
-4.175849935624158e-31
-2.200727717390055e-32
-1.105838586090405e-33
-6.642763062576253e-34
-3.276159329316309e-34
-1.261146763239479e-34
-3.565015786263277e-35
-6.358109712653333e-36
-7.005330831483733e-33
-9.47821563888566e-32
-6.260613983171468e-31
-2.610344178776207e-30
-7.73127038975175e-30
-1.729403985425106e-29
-3.025640070793198e-29
-4.220392452889804e-29
-4.731463502949132e-29
-4.258300872740653e-29
-3.046349782245197e-29
-1.699024724566371e-29
-7.158846737560249e-30
-2.169457461660838e-30
-4.364994451659213e-31
-5.043935517968534e-32
-2.454664982223755e-33
-8.692410203011734e-35
-5.715955399401608e-35
-3.169142701302784e-35
-1.407318775022251e-35
-4.763538605292698e-36
-1.0914508292232e-36
-2.035486985063658e-34
-3.046486825981919e-33
-2.209621734126111e-32
-1.008521356680085e-31
-3.25574356322051e-31
-7.894058224104775e-31
-1.48710194817618e-30
-2.216994103872736e-30
-2.635619397066873e-30
-2.495673441917568e-30
-1.864553065219236e-30
-1.078971205737279e-30
-4.693212193650719e-31
-1.464056019505992e-31
-3.034334948168734e-32
-3.637374485349801e-33
-1.868111465911305e-34
-5.891835882709176e-36
-4.230967053191827e-36
-2.608741853344582e-36
-1.306549961805927e-36
-5.099365039543383e-37
-1.427178214531071e-37
-1.509475159974932e-36
-2.478777546256581e-35
-1.9578785222931e-34
-9.705105664707199e-34
-3.392150807201593e-33
-8.876696934815702e-33
-1.799470662147976e-32
-2.880645221961102e-32
-3.674706188228166e-32
-3.739442765427949e-32
-3.016745326124422e-32
-1.902629061184341e-32
-9.162544271991622e-33
-3.244831190535947e-33
-7.943072620609986e-34
-1.200013422194703e-34
-8.735157788071353e-36
-3.408160228792522e-37
-2.671547936768266e-37
-1.81754606865473e-37
-1.01163396934889e-37
-4.429126740712676e-38
-1.425220334806101e-38
-5.322563184984142e-40
-1.232330245973999e-38
-1.348751619970901e-37
-9.192294415876971e-37
-4.37979145853686e-36
-1.547973858653352e-35
-4.197068461392393e-35
-8.896714923949159e-35
-1.487858819017486e-34
-1.965710619697192e-34
-2.039805018103988e-34
-1.640353809032788e-34
-9.990171126099788e-35
-4.440148269520966e-35
-1.354528895240215e-35
-2.537664983044091e-36
-2.335887167483269e-37
-1.670312062608757e-38
-1.430884559603596e-38
-1.067287384548003e-38
-6.542999858808734e-39
-3.178770429821225e-39
-1.158482930523706e-39
-4.097297535860381e-42
-9.873144012760929e-41
-1.118520957027873e-39
-7.868024919043226e-39
-3.857915938689137e-38
-1.399115845705006e-37
-3.881370546275501e-37
-8.395273742069433e-37
-1.429054288707037e-36
-1.917560161327146e-36
-2.017522010685972e-36
-1.64317791796238e-36
-1.013214069763123e-36
-4.563408351501605e-37
-1.415606008268311e-37
-2.738718283309093e-38
-3.031696873494913e-39
-6.954709049404767e-40
-6.520363391662991e-40
-5.302445790817152e-40
-3.55652407615061e-40
-1.906021885504979e-40
-7.823941829867051e-41
-8.821049197998624e-45
-2.172642251805104e-43
-2.506733019339666e-42
-1.793255023351973e-41
-8.929978567487446e-41
-3.285023756615446e-40
-9.234350645701759e-40
-2.022405840450761e-39
-3.484622118221251e-39
-4.734363391219612e-39
-5.049762209316258e-39
-4.180675110829628e-39
-2.63439369216055e-39
-1.226330860924026e-39
-4.0600996207093e-40
-9.732475737271914e-41
-2.943708787811375e-41
-2.453635329158896e-41
-2.514326477955516e-41
-2.219385559319534e-41
-1.625082827380362e-41
-9.647901555889525e-42
-4.543150450102164e-42
-6.728268982720788e-49
-1.973275650871452e-47
-2.708166744183458e-46
-2.311847096547761e-45
-1.378679794352365e-44
-6.09912761737084e-44
-2.072452390643445e-43
-5.522535571779844e-43
-1.167743336533077e-42
-1.96973009378651e-42
-2.650937917496499e-42
-2.836300473737814e-42
-2.402339518816161e-42
-1.624722472633848e-42
-9.47462775553542e-43
-6.253955795744896e-43
-6.174269162086005e-43
-7.394901245456547e-43
-8.272821393695989e-43
-7.953357052476684e-43
-6.425782586636458e-43
-4.32996080419019e-43
-2.4501164534592e-43
-3.679748644467857e-51
-1.106663233748937e-49
-1.552419866713191e-48
-1.352814091781514e-47
-8.227175521265274e-47
-3.709135114604523e-46
-1.284081739654056e-45
-3.487151735187346e-45
-7.522560568317114e-45
-1.297528521586278e-44
-1.793909178983977e-44
-1.990712506608547e-44
-1.789152224033818e-44
-1.365888569380195e-44
-1.04725496402718e-44
-1.061286352788571e-44
-1.412967260658537e-44
-1.930694762433929e-44
-2.369945796934036e-44
-2.519970194667018e-44
-2.310225778032797e-44
-1.848404095791602e-44
-1.329456944922982e-44
-1.064835249380669e-53
-3.262769706222777e-52
-4.659330976975407e-51
-4.137087122520076e-50
-2.567047357619922e-49
-1.183162344214934e-48
-4.199673448672527e-48
-1.174369522896664e-47
-2.625465111802234e-47
-4.740795565108923e-47
-6.98019965617107e-47
-8.522678441050128e-47
-9.035211514620362e-47
-9.380105954012745e-47
-1.152684191211798e-46
-1.763449283005076e-46
-2.884173553287158e-46
-4.42481198196492e-46
-6.063412326418334e-46
-7.364720575591452e-46
-8.020668493987994e-46
-8.011272480190956e-46
-7.509454457204844e-46
-1.546681341385237e-56
-4.917113182264343e-55
-7.308493440892486e-54
-6.792606784968499e-53
-4.442523210647604e-52
-2.176913845903081e-51
-8.304510428273034e-51
-2.530420967938243e-50
-6.276624491208546e-50
-1.289206349836515e-49
-2.241461464593023e-49
-3.435939086984293e-49
-5.038914591174854e-49
-7.964064670027943e-49
-1.442989421253525e-48
-2.806032198137468e-48
-5.304999339353406e-48
-9.241881355655154e-48
-1.463671484208159e-47
-2.12184754925378e-47
-2.855762084762377e-47
-3.607685163047899e-47
-4.279210890918785e-47
-1.514295967678114e-59
-5.411037525350683e-58
-9.094832144388135e-57
-9.632052030521224e-56
-7.230777527405405e-55
-4.094975939211395e-54
-1.817275331554952e-53
-6.484388401823071e-53
-1.898295579760214e-52
-4.65604106078498e-52
-9.874083434332268e-52
-1.916994646641228e-51
-3.729074610651612e-51
-7.878745452630997e-51
-1.800725960842598e-50
-4.152179530573772e-50
-9.114374685369791e-50
-1.861396151195856e-49
-3.532073606322832e-49
-6.25955853243633e-49
-1.038554146196501e-48
-1.607766356288741e-48
-2.308337335618663e-48
-3.527905879194186e-62
-1.367857758720354e-60
-2.482625334738849e-59
-2.830608377889611e-58
-2.281956836681672e-57
-1.385450474636705e-56
-6.588096620102675e-56
-2.522899264362819e-55
-7.971241951638419e-55
-2.13943724061341e-54
-5.112783387962645e-54
-1.176406390126072e-53
-2.858967669683304e-53
-7.621571859229649e-53
-2.129826110301232e-52
-5.852466601589631e-52
-1.525673489984096e-51
-3.728946368635907e-51
-8.520798963170518e-51
-1.815659507339489e-50
-3.59302367019976e-50
-6.5827047325959e-50
-1.120077588092297e-49
-8.47428925586498e-65
-3.418326618465286e-63
-6.457812844830849e-62
-7.677314599266301e-61
-6.466454052811887e-60
-4.112624053127371e-59
-2.056654713452531e-58
-8.338829030979785e-58
-2.82605539577655e-57
-8.3523409453899e-57
-2.308321623520323e-56
-6.568535023736974e-56
-2.059456202784055e-55
-6.976620393395321e-55
-2.389451847619031e-54
-7.877221205900154e-54
-2.444454420831773e-53
-7.076928653443584e-53
-1.902203278987109e-52
-4.731327348421059e-52
-1.088510892183447e-51
-2.330400222069907e-51
-4.728212717576042e-51
-1.567663691484895e-67
-6.604298654962187e-66
-1.302644480550545e-64
-1.618735828504892e-63
-1.427320007464e-62
-9.525866514129503e-62
-5.021277141345569e-61
-2.166067619222405e-60
-7.971958794892391e-60
-2.670993607508453e-59
-8.988607341202028e-59
-3.330674177251733e-58
-1.367273881004801e-57
-5.810811480752702e-57
-2.400873752528938e-56
-9.339955283729022e-56
-3.376839593256256e-55
-1.128690751119567e-54
-3.481793791204871e-54
-9.932377668943282e-54
-2.641574801578595e-53
-6.673547642105909e-53
-1.656085921659069e-52
-1.799623016769857e-70
-8.018250935739518e-69
-1.668382411796873e-67
-2.187205844883579e-66
-2.036025056061756e-65
-1.437470076040514e-64
-8.059989572599233e-64
-3.751766967179535e-63
-1.542437445320625e-62
-6.183025604961929e-62
-2.708221615741435e-61
-1.343919154370331e-60
-7.070727839595917e-60
-3.6482528881658e-59
-1.769989184804941e-58
-7.944783170624332e-58
-3.282905887325162e-57
-1.248802967388247e-56
-4.390376781695747e-56
-1.440308555333621e-55
-4.492295442279266e-55
-1.373814950116095e-54
-4.284305368667045e-54
-4.297332287700246e-74
-2.180364152916283e-72
-5.125714703729848e-71
-7.563321258846539e-70
-7.903889310427444e-69
-6.25847132610996e-68
-3.946753265089949e-67
-2.093614051933393e-66
-1.01811359945839e-65
-5.167926488778639e-65
-3.02493613130454e-64
-1.975602826013252e-63
-1.303634796925755e-62
-8.139972671854336e-62
-4.687066153028286e-61
-2.471575211278218e-60
-1.194219366354831e-59
-5.313398402068851e-59
-2.198786383887599e-58
-8.61329753655598e-58
-3.283544813695991e-57
-1.261817907399351e-56
-5.034963600207388e-56
1
0.9999987550898549
0.9999985540742969
1
1
0.9999968874049555
0.9999956216887276
1
1
0.9999982182090152
0.9999967920359859
0.9999998414870612
1
0.9999999330391612
0.9999999411521275
0.9999999951430464
0.9879009852794458
1
1
1
0.2220093002883654
0.3108483334742296
0.388884363651016
0.4938448343938446
6.693882654815355e-19
3.123665172456561e-19
1.594070908415732e-18
0.004908063804218128
7.457567776219862e-06
2.754462430875893e-06
3.364636696557164e-23
-4.647503843378222e-22
2.337729514158366e-07
2.129141254342142e-07
1.04057271246633e-07
1.82378306977845e-08
1.275241475089489e-15
1.336060520597923e-15
1.284105788995509e-09
7.690904773420806e-10
9.861866812120627e-15
1.543009012782399e-14
1.571975089692347e-14
1.600237095497016e-14
9.65145088503528e-15
1.556175526359061e-14
2.312298865674182e-14
3.946116448238948e-14
6.473471305461176e-15
1.017858504665282e-14
1.425670941395226e-14
2.563227486275979e-14
2.617233421121682e-15
3.882955968716248e-15
5.243625963779543e-15
7.955010842393393e-15
1.025649303655184e-15
1.542661055776245e-15
2.145359050468967e-15
3.015348107231623e-15
4.220595158583793e-16
6.20727236051286e-16
8.438253025579781e-16
1.09810341951816e-15
1.428960440177523e-16
1.908126115740094e-16
2.361978191429229e-16
3.241868400430658e-16
3.321705897894941e-17
3.921692470662748e-17
4.585448367518464e-17
8.048430147472233e-17
5.019330294343396e-18
5.378033596513667e-18
6.100334077382818e-18
1.450927510717888e-17
4.683219019617238e-19
4.351882520894187e-19
4.071281651556131e-19
3.284055307860527e-19
2.088442647368254e-20
1.073905297910664e-20
2.072813150345976e-21
-6.666934210433301e-35
9.338570000034212e-23
7.840230148325785e-24
2.882616536346931e-25
-2.346880706984045e-36
-2.083632825663261e-36
-3.959846773770398e-37
-2.022190279726702e-54
-2.554528809666321e-37
-1.309815073766189e-36
-2.532938596268572e-37
-2.989892717003659e-38
-1.343380152175886e-38
-6.738795771930131e-37
-1.397782070964266e-37
-1.702312748852836e-38
-1.022508559735961e-39
-2.758842033101121e-37
-6.535666695899186e-38
-9.049133008308279e-39
9.724314855089032e-43
-8.820099106864424e-38
-2.447082386005349e-38
-3.93505161703565e-39
-9.796631241593694e-47
-1.932404557012027e-38
-6.496221830179104e-39
-1.266124701233039e-39
1.231218957149553e-49
-2.626282599822107e-39
-1.074162935178285e-39
-2.759362068910374e-40
-4.821397611538559e-54
-2.776180726888282e-40
-1.467547128450877e-40
-6.788064625923952e-41
-2.048500021135526e-41
-2.27797686062831e-41
-1.346937135243306e-41
-8.009293969347401e-42
-4.818745176672798e-42
-1.663382192289275e-42
-1.079251609749468e-42
-7.07371434984924e-43
-4.705578490787526e-43
-1.200651009751848e-43
-8.756629619057628e-44
-6.416042754944316e-44
-4.723317302623503e-44
-8.924559144740084e-45
-7.331981635563002e-45
-5.977921607010436e-45
-4.831258609611721e-45
-6.652379701365337e-46
-6.076506300970286e-46
-5.453697406051381e-46
-4.811370928204255e-46
-4.720843258120506e-47
-4.757862403745416e-47
-4.706242828033891e-47
-4.584088206940711e-47
-3.070232208154155e-48
-3.445164515237175e-48
-3.836124919741428e-48
-4.268108361448782e-48
-1.80054841694768e-49
-2.311657843644341e-49
-3.010760783081277e-49
-4.003004531179456e-49
-9.426519637837144e-51
-1.433417286980088e-50
-2.256159049978254e-50
-3.658660526461543e-50
-4.218942024939705e-52
-7.753498945500307e-52
-1.47834143350047e-51
-2.876599926606215e-51
-1.403525058501266e-53
-3.092671690885728e-53
-6.985598561650375e-53
-1.58781283695442e-52
-2.098833045037051e-55
-5.487126015417166e-55
-1.453239582533573e-54
-3.840886963823134e-54
0.01906929008417709
5.120001960570163e-31
5.247387675289678e-31
2.288670939709757e-31
-4.593902608095678e-29
-6.010730115943254e-30
2.629184177918568e-12
1.7804102925318e-12
1.442402381230965e-29
2.135216782328382e-30
1.253335190515879e-33
0
2.572055603749166e-31
2.697809778076707e-32
-6.44806260520042e-21
-3.958078596922596e-20
1.506410661076187e-12
1.652745520126399e-12
1.780873754002064e-12
0.6720044690867063
0.03980712068547403
0.03538142425334514
0.1844127460886893
0.1821530133500362
0.0199490819496241
1.96512219282203e-19
1.626940910799692e-18
0
0.2430017066253044
0.5288570644611222
0.525461208241184
0.2891006531149719
0.005514898013557513
0.00249211574847852
0.006966829441362063
1.592137773305849e-12
1.679482203256847e-12
1.769577040465544e-12
1
0.7239616205646957
0.7341004612854223
0.8978835816046258
0.9065694941694277
0.7120046081953522
0.4250055811674163
0.4270719563530164
0.6614722012388816
0.945330034779806
0.9988662782209826
0.9955995377733164
0.9345742830014838
0.8433777115670709
0.8341933474527182
0.6206149735812153
0.1959761104446598
0.009495673283201835
1.778708305694099e-12
1
1
1
1
1
1
0.9921080500575472
0.9939081559475905
1
1
1
1
1
1
1
1
0.9829791847487326
0.5636909979643756
0.2357914977379298
1
1
1
1
1
1
1
1
1
1
1
1
1
1
1
1
1
0.9867293327243069
0.7525638234314935
0.7018369117221286
0.8119093598248538
0.8606612908178385
0.8684480338860839