/*--------------------------------*- C++ -*----------------------------------*\
| =========                 |                                                 |
| \\      /  F ield         | OpenFOAM: The Open Source CFD Toolbox           |
|  \\    /   O peration     | Version:  2206                                  |
|   \\  /    A nd           | Website:  www.openfoam.com                      |
|    \\/     M anipulation  |                                                 |
\*---------------------------------------------------------------------------*/
FoamFile
{
    version     2.0;
    format      ascii;
    arch        "LSB;label=32;scalar=64";
    class       volScalarField;
    location    "0.4";
    object      alpha.water_0;
}
// * * * * * * * * * * * * * * * * * * * * * * * * * * * * * * * * * * * * * //

dimensions      [0 0 0 0 0 0 0];

internalField   nonuniform List<scalar> 
2268
(
1
1
1
1
1
1
1
1
1
1
1
1
1
1
1
1
1
1
1
1
1
1
0.9999346875973114
1
1
1
1
1
1
1
1
1
1
1
1
1
1
1
1
1
1
1
1
1
1
0.9999283314776669
1
1
1
1
1
1
1
1
1
1
1
1
1
1
1
1
1
1
1
1
1
1
0.9999283226938624
1
1
1
1
1
1
1
1
1
1
1
1
1
1
1
1
1
1
1
1
1
1
0.9999685699138254
1
1
1
1
1
1
1
1
1
1
1
1
1
1
1
1
1
1
1
1
1
1
1
1
1
1
1
1
1
1
1
1
1
1
1
1
1
1
1
1
1
1
1
1
1
1
1
1
1
1
1
1
1
1
1
1
1
1
1
1
1
1
1
1
1
1
1
1
1
1
1
1
1
1
1
1
1
1
1
1
1
1
1
1
1
1
1
1
1
1
1
1
2.852535205136604e-26
8.428888778831308e-25
3.089010296594789e-23
1.153484293360202e-22
1.437236758581388e-22
1.140788919692235e-22
9.912927084656954e-23
1.326319385920569e-22
3.814537063634444e-22
7.438963737209365e-22
1.336749881588019e-21
2.14043345574244e-21
2.199826360568342e-21
3.341317384360546e-21
4.465013082042006e-21
6.537605335460861e-22
4.703056458423028e-24
2.692658016822983e-27
7.359971669077968e-28
2.016535675533299e-23
2.294153969258404e-20
7.436248379174787e-19
2.839265793235295e-18
3.723076001275364e-18
3.586655199925433e-18
3.464795187881818e-18
7.271309476191409e-18
2.080659773954747e-17
3.638279172818581e-17
5.539277383354981e-17
7.875314601742119e-17
8.424944087659282e-17
1.11738823814805e-16
1.196004656847515e-16
2.214987668978074e-17
5.539927773511516e-19
6.209354918073236e-22
5.136578836488905e-23
6.357245654342971e-21
7.237561620961918e-18
2.827802201117397e-16
1.439847867241347e-15
2.506168310987719e-15
2.951980836230837e-15
3.534955248745668e-15
7.373368809697573e-15
1.803987037449285e-14
2.916848478256229e-14
3.815468532529136e-14
4.698288952915092e-14
4.89468258834395e-14
5.657963320713266e-14
4.91575922503116e-14
1.39226082750213e-14
1.284351909871856e-15
1.868557985989503e-17
8.732950277209333e-18
9.649339750241379e-20
1.152237450817365e-16
5.194516427660421e-15
3.337587761521647e-14
7.707376055822858e-14
1.205652163826358e-13
1.89065454593638e-13
3.660764196685582e-13
7.206356367891996e-13
1.096632690233715e-12
1.312502013413191e-12
1.41274816559947e-12
1.404045399476427e-12
1.434099079561826e-12
1.129188779318286e-12
5.161053886985045e-13
1.194488034600489e-13
1.087227046137249e-14
1.161961624779496e-14
4.473653866658122e-19
5.924387794652724e-16
2.816210002377637e-14
1.990904151483781e-13
5.310036020405728e-13
9.744861702431883e-13
1.628061998956523e-12
2.704990740873964e-12
4.277016145100505e-12
5.149798303190111e-12
5.643307361332987e-12
5.607784127755789e-12
5.449405930904843e-12
5.025648286231971e-12
4.024934193602881e-12
2.71781462474514e-12
1.197566430599275e-12
3.333984888371617e-13
3.867692367126953e-13
2.598110480948825e-18
4.051617097594752e-15
1.598754258233935e-13
9.744922967611757e-13
2.498212331406121e-12
4.467433326588797e-12
6.512026758365934e-12
7.973240487538475e-12
8.399394391675581e-12
7.801921560293264e-12
7.40718151477179e-12
7.298444530567692e-12
7.278823861452724e-12
6.405983472850565e-12
5.31613000583539e-12
4.37817674544471e-12
2.992165193873605e-12
1.392376967686617e-12
1.358228455609457e-12
1.343152486812595e-18
5.889833884876622e-15
3.137468826939954e-13
2.498523027865282e-12
6.590670363996198e-12
9.66310937113588e-12
1.081595611781298e-11
1.065225757584345e-11
7.971827783518099e-12
5.074717299187344e-12
3.658163502279405e-12
4.445528867179704e-12
4.989989449454978e-12
4.244094952947883e-12
3.790765808055392e-12
4.301348813290238e-12
3.660757984233849e-12
2.039956362266293e-12
1.741138640013191e-12
1.325704045457519e-18
3.125310608502852e-15
1.808281011741376e-13
1.698429338267244e-12
4.930047723961589e-12
7.285859205022255e-12
9.943199750859761e-12
8.088630353705821e-12
3.431675006195109e-12
9.471524690838872e-13
1.842981554661722e-13
5.823603327955678e-13
9.548847677106762e-13
1.028630061638592e-12
9.210455699725914e-13
1.6235432735036e-12
2.88302292519772e-12
2.15167136962633e-12
1.780313362309862e-12
1
1
1
1
1
1
1
1
1
1
1
1
1
1
1
1
1
1
1
1
1
1
1
1
1
1
1
1
1
1
1
1
1
1
1
1
1
1
1
1
1
1
1
1
1
0.99999994733186
0.898716163356178
0.9014410088183828
0.8996058375704049
0.8959792201068992
0.8910738286742548
0.8850946592204957
0.8784068652349083
0.871669095397167
0.8658377556586124
0.8621245614348315
0.8622686021056948
0.868036775478031
0.8807322182985067
0.9015981274793627
0.9299068383759684
0.9615457024980103
0.9965656767557376
1
1
1
1
1
0.9999999406323925
0.1634973130622945
0.1679413608580212
0.165352964261708
0.1606425533560774
0.1544383861140074
0.1471274159404486
0.1392939494037567
0.1317492930741611
0.1254479496494584
0.1214340566992681
0.1211054960421404
0.1263167144717734
0.1387249436546802
0.1618437761795886
0.1998991520386177
0.2562404024931796
0.3470629460969122
0.5167352713182483
0.7409435020978525
0.9575797506544714
1
1
1
-3.271523607556317e-21
-2.202883982757877e-36
-3.163669944189816e-34
4.879494334452278e-33
7.809784894924671e-33
-4.479490436454337e-30
-3.276638021346285e-30
9.062044452070361e-32
-1.932685984056442e-30
-1.067394538729309e-28
-4.232306875816723e-30
1.182870629372997e-27
-7.632473685501824e-26
-8.293025864567954e-28
-1.444791918837414e-22
3.909178101160082e-29
2.054543795882253e-20
0.007509428239281653
0.04591845487206465
0.1471682283051621
0.3343644256239554
0.5992750997256481
0.8443213699219775
-5.786434253880774e-21
1.085183971211017e-18
1.76371429951118e-16
7.861169776112585e-16
8.162477819041651e-15
8.927688814083845e-13
5.724309049838462e-13
1.33321778863281e-12
1.840277217897322e-12
2.382305956525268e-11
2.546433216079967e-11
5.634492620970153e-10
1.169676150488839e-15
-1.183244055046357e-24
-2.574076699470793e-25
4.928887261279626e-10
7.733045472997722e-11
1.553279918713956e-20
3.144935434959157e-20
8.780311901604742e-20
2.369710788179504e-19
0.02275816144756805
0.1106622737113126
-2.14167018003671e-21
1.466242871936308e-17
1.527061741114808e-15
1.572918021546139e-14
1.31960927538533e-12
3.187607327309881e-12
3.38002170567057e-12
7.621486537030005e-11
5.555385511056111e-12
2.232945172312085e-11
1.268513469622136e-12
7.673002048687555e-13
3.208232267284555e-06
8.097398099377242e-06
2.509060540961681e-06
6.435019656730062e-08
2.433966246218566e-21
7.988559883530674e-11
1.734570888866256e-11
1.54939591371135e-12
1.370676200751196e-05
1.251378378750159e-10
-7.039909602371085e-21
6.509599813478666e-21
4.753595216061862e-17
4.549816395503041e-15
2.287465149150781e-13
2.610959999302867e-11
3.395320049538023e-12
1.712678128819955e-09
1.55201758113078e-09
7.673000961633738e-13
7.673000961794227e-13
7.673000961615688e-13
7.67300096172605e-13
3.869000355221334e-05
5.93313315887269e-05
3.160925852402645e-05
6.533681775230153e-08
2.575841562992251e-21
2.434202044031423e-21
2.576279158681852e-21
2.434871345125957e-21
4.027238353294513e-06
7.244784488715867e-06
7.357097646165989e-06
4.443677059130786e-20
9.257142192792392e-17
1.728293442703959e-14
3.126158012833571e-12
1.164538003202911e-10
3.696453564061942e-12
1.04100636319938e-08
3.651956750853143e-09
1.754962993345734e-07
9.261662610496028e-08
7.673000961797104e-13
5.318043916393216e-07
5.258788862836781e-05
5.901406289272576e-05
4.00774847102404e-05
8.141066563781992e-06
1.316381686070061e-05
8.189582881783105e-06
1.562272524543141e-05
0.0001321072135849757
0.0001345923380863807
2.261963053557568e-05
6.147303832718624e-09
9.696344150187564e-20
2.470471435884146e-16
1.515147117008082e-13
1.545897287482e-11
2.10692873227234e-10
1.669482277244949e-11
1.292429801323236e-08
3.69129344016139e-09
1.462088025810952e-06
1.025887285179097e-06
6.215168664429005e-08
7.638983298383593e-08
2.533930203582723e-06
1.587022449147716e-06
5.433310216857064e-05
8.982132837817085e-05
0.0001450581944150856
0.000144792149651937
0.0001450581944150856
0.000144792149651937
7.638373866181046e-05
5.833884617136129e-07
1.336060523591855e-15
2.017263952899461e-19
1.78828218835076e-15
7.250565493100774e-13
3.257417308346085e-11
2.409441929947845e-10
4.072319783028823e-12
1.188194974445453e-08
3.327434077079135e-07
1.491432970026111e-06
1.151601504405969e-06
1.561168506474973e-07
3.235356187381509e-12
3.069690913522059e-12
3.235356187384377e-12
7.308106928050741e-05
9.939382753878239e-05
9.393552573871344e-05
6.545808594415972e-05
8.70289481512054e-06
4.354453617461005e-08
2.216596376259015e-16
2.300509177554764e-16
5.333045897765081e-15
1.293044884123556e-18
8.232727866842305e-15
1.56885428127429e-12
4.061396500532179e-11
2.344958222826322e-10
4.072098623222431e-12
8.306748634841308e-08
6.451841588188811e-07
1.224849578055769e-06
6.14049824117676e-08
6.716228078254159e-28
8.416831090689863e-09
6.33972602919353e-08
1.028210828335205e-06
6.367070759500618e-22
2.772500836244584e-05
2.362925792808568e-36
2.115876088501904e-36
9.616123080605699e-36
-1.83602477837073e-40
2.135852808876887e-16
1.008562274940324e-15
4.891983028170315e-15
7.825251582119259e-18
1.775284558043777e-14
2.089850912077595e-12
4.097872541881968e-11
1.389495933994762e-10
4.072319783028865e-12
1.785507074102585e-07
6.334313169201146e-07
-7.867203411467095e-26
1.294893643731075e-26
7.261148010817277e-27
1.739435582069446e-08
5.89596613728898e-08
1.389961206839658e-14
9.797251057059805e-22
6.496864290233503e-22
2.763838092562551e-19
3.439461193113642e-18
6.217212661165375e-18
2.170946157818745e-17
9.248230147086308e-17
6.375118085896999e-16
3.390677656611404e-15
2.045979070293757e-17
2.329431622474252e-14
2.143171437489388e-12
2.291456455988814e-11
5.70678916031833e-11
1.733459280625847e-09
1.60778315076168e-07
2.304556542493111e-07
1.644120023054348e-08
1.666677535403546e-08
-1.080417223521821e-28
0
3.340562104245388e-14
3.240306102610212e-14
1.145894144831263e-17
1.71441555660321e-20
3.882150021977653e-19
2.375356573774535e-18
1.081918293076124e-18
1.935356384644905e-18
3.641102916460083e-17
3.388657546654593e-16
1.476422968152462e-15
2.882370604845121e-17
2.238991742124479e-14
1.011497991525659e-12
8.599350451148436e-12
1.040762183298667e-10
3.406570497012324e-09
1.447710151718342e-09
9.978357652273125e-10
1.882756934579172e-08
2.592102695341156e-09
5.531305405136456e-11
1.583679728836498e-10
9.589974439113727e-12
3.582145941036818e-14
1.254447911740597e-17
4.930573440785904e-20
1.177928773310922e-20
4.610402123811324e-20
2.753201684871555e-20
6.949914465840289e-19
1.775817708552706e-17
1.246524824680717e-16
5.636399659185747e-16
2.768791448804579e-17
7.680748798683285e-15
2.218448550299838e-13
6.088809171483611e-12
1.297922517406917e-10
3.956881783376391e-10
2.273089058905227e-11
1.029644434147372e-09
9.35822752598197e-09
5.173049435925813e-10
5.45352357512375e-10
2.348256460353172e-10
1.513263973787438e-11
1.037428505081627e-16
1.643970174248206e-16
1.68527188302831e-19
3.260457493681884e-23
1.88957337848085e-22
2.766102082563245e-21
2.548475455592072e-19
5.08038287004877e-18
4.278086506648804e-17
2.285753561134255e-16
9.64479154734382e-18
1.254458993472261e-15
6.659943005215647e-14
4.352657142673309e-12
2.361844695846144e-11
2.281892313589854e-11
2.380724106405619e-11
9.142247890150091e-11
8.837526645536908e-11
6.873637747607288e-10
6.67879224226952e-10
2.374430942795225e-10
1.308451551702846e-11
1.033238443332467e-16
1.154841101391113e-15
2.163330965647822e-19
7.812919506146826e-24
3.258833942013104e-23
7.271292279273509e-22
5.535527431387192e-20
1.350849975522568e-18
1.508005604843972e-17
8.405126186093075e-17
1.342351814786581e-18
1.460862639476765e-16
1.882824416559121e-14
1.161181026951559e-12
7.648250537826369e-12
1.579716515945018e-11
3.997101199207831e-11
2.156573231353922e-10
5.106883305681437e-10
6.965567372463276e-10
5.759543019977075e-10
1.255272628852614e-10
6.237362660764708e-12
3.746982363725532e-15
2.159795692071122e-15
8.469975285912729e-20
8.611773163248142e-25
1.860894000557932e-24
9.032940552380694e-23
8.793015909793147e-21
3.076167265159964e-19
4.720498731633225e-18
2.318693741964829e-17
8.739814594804637e-20
1.698474854666341e-17
3.354698141315334e-15
1.627418140018167e-13
1.471120775110836e-12
5.643787619116401e-12
4.031910856949081e-11
2.151918446291387e-10
4.526438307305193e-10
5.058841048806271e-10
1.987607882820012e-10
2.951803185505485e-11
1.961717087591382e-12
2.555786178487594e-14
2.272483918184276e-15
6.208716117574484e-44
7.275238452055664e-26
7.118254330501259e-25
8.272206729886293e-24
1.13227530757998e-21
7.738213426983681e-20
1.191481514640204e-18
4.359701853670753e-18
2.321597822732036e-21
4.937377980892614e-18
6.729054843891886e-16
1.335904039841851e-14
1.161594501720942e-13
9.668497850350938e-13
1.514837705252815e-11
6.919754083422507e-11
1.071453441715401e-10
1.04451275459857e-10
3.628052466794453e-11
5.20142287329792e-12
4.666084915789792e-13
3.172989934559994e-14
2.18194438499173e-15
2.081446728713062e-44
1.148045032772339e-25
5.191408311955736e-25
1.059452955519433e-24
2.481021818257221e-22
1.76913142771661e-20
1.851863956987834e-19
4.930613280248841e-19
4.187215459327884e-22
1.465750113677198e-18
1.127594886611565e-16
1.056861563032734e-15
5.451338412144102e-15
1.282205850073499e-13
2.57846968624905e-12
9.398181269719208e-12
1.227317058177549e-11
1.103971499777837e-11
4.669423239166498e-12
7.231825672765662e-13
9.570015234066039e-14
1.99570878641568e-14
1.522637659865493e-15
6.552699678147678e-45
6.052790912331712e-26
1.307489897490393e-25
2.650657308463261e-25
4.631070631126734e-23
1.990971619034522e-21
1.47722575700744e-20
2.915258989604943e-20
7.798588094837931e-25
9.838988128724799e-21
3.078534935414977e-18
8.804674734905941e-17
9.077295245905851e-16
2.040484872279753e-14
2.613367058326982e-13
8.034206514404433e-13
1.036472723501104e-12
9.01555155764947e-13
3.718083766391638e-13
8.077952525337181e-14
1.787633145775951e-14
4.929560793865107e-15
6.426857007316426e-16
3.878199967476362e-45
6.98053708251111e-27
8.593747305713266e-27
7.851162515538276e-27
1.442460185309704e-24
6.520369179531227e-23
3.334798960954925e-22
4.322190351591194e-22
3.289759735186252e-26
4.116822225515084e-22
1.191428857207908e-19
3.23244138235603e-18
4.049960198522617e-17
1.18214675850517e-15
1.285000035117076e-14
3.397947122141e-14
4.094074179067435e-14
3.347687664952288e-14
1.652263260561975e-14
6.945588581652236e-15
2.931020429861036e-15
8.599358966809664e-16
1.57329760902266e-16
-4.552375462683632e-29
8.941072671138528e-49
3.508714621321683e-30
4.406341521003941e-30
2.585972229580946e-30
5.000274459327687e-31
2.926110977693497e-32
1.64144001137904e-54
6.79541337024979e-30
9.137528191291071e-26
5.48435836996975e-23
2.207279519938001e-20
2.551526264628894e-18
2.562944263906501e-17
4.832581673370072e-17
3.035485084044956e-17
4.376494829839358e-18
6.292500345678656e-17
2.839978912154148e-16
4.493895507462614e-16
4.228108678756297e-16
1.26673908898862e-16
1.888656873416945e-17
-1.232352252706598e-29
-8.192689464175166e-31
-4.105029944554106e-32
-3.152056219631466e-33
1.067988146958541e-33
5.574095677243539e-34
1.357558557577646e-35
1.07854322159935e-34
-1.612092508095671e-30
-1.685636338567951e-29
-8.661577727581999e-29
-2.731745723401676e-28
-5.085019962524279e-28
5.976900930322158e-41
1.223182541937714e-22
9.922734742188862e-20
3.594784144134323e-18
1.294833292633953e-17
2.072986971861741e-17
2.641520240769891e-17
2.553389442295787e-17
1.064330342734284e-17
7.614853978822068e-19
-2.652893422473381e-30
-1.594330050077002e-31
-1.26630250999313e-32
-6.794782007083473e-33
-2.84309112467164e-33
-8.749741743799745e-34
-1.870642197805514e-34
-2.511403516062201e-35
-1.418308482047446e-31
-1.68714102328682e-30
-9.862229999477329e-30
-3.642571870542511e-29
-9.579763238656403e-29
-1.91150331209668e-28
-3.007333381824399e-28
-3.814340319516411e-28
-3.949279160749831e-28
-3.350832248036427e-28
-2.317895763014441e-28
-1.283206156801422e-28
-5.482841020777499e-29
-1.72213370817242e-29
-3.653034304724927e-30
-4.499889784413363e-31
-2.380859474863107e-32
-1.181452579629905e-33
-7.143279536113347e-34
-3.547623887302539e-34
-1.375484109754907e-34
-3.917610950644601e-35
-7.045785211998426e-36
-7.062566739251272e-33
-9.595452190581825e-32
-6.362402870554663e-31
-2.663221830401131e-30
-7.919612292945282e-30
-1.778851329436628e-29
-3.125423222168231e-29
-4.378883422145425e-29
-4.931803261097764e-29
-4.459982447592484e-29
-3.206646860966495e-29
-1.797750726360708e-29
-7.615618342003038e-30
-2.320609576170181e-30
-4.695145071553214e-31
-5.455054977053276e-32
-2.665423626275076e-33
-9.271553836164192e-35
-6.138382982253368e-35
-3.429437184632955e-35
-1.535229637587458e-35
-5.242380150702547e-36
-1.214160121273994e-36
-2.041758101083122e-34
-3.069460855350364e-33
-2.235709535895211e-32
-1.024898452869879e-31
-3.323564319318015e-31
-8.096125372204606e-31
-1.532541911523624e-30
-2.296199734723162e-30
-2.744007261660078e-30
-2.612363933894662e-30
-1.962673147379342e-30
-1.142319961409709e-30
-4.998247130891513e-31
-1.568621998247194e-31
-3.270701654953883e-32
-3.943568722799733e-33
-2.033821047673821e-34
-6.268532444449917e-36
-4.533539693520398e-36
-2.818802362336902e-36
-1.42437636614895e-36
-5.613201738649273e-37
-1.589994814403088e-37
-1.505126765224598e-36
-2.483238663945562e-35
-1.970355358525054e-34
-9.813159994431891e-34
-3.446660759539207e-33
-9.06475357056734e-33
-1.847143150400989e-32
-2.972836730270027e-32
-3.813358088664654e-32
-3.902800949226899e-32
-3.167194313377869e-32
-2.009732740029019e-32
-9.739304271601183e-33
-3.471420022781053e-33
-8.554091734425567e-34
-1.300981618473661e-34
-9.522180835127397e-36
-3.613372725302095e-37
-2.853629977100431e-37
-1.959348246158607e-37
-1.101357262402973e-37
-4.873438289437901e-38
-1.588080154381024e-38
-5.206056755936081e-40
-1.212248796467774e-38
-1.334430005218726e-37
-9.149096913281836e-37
-4.386082659800623e-36
-1.560022511775454e-35
-4.257267937865767e-35
-9.084621013328044e-35
-1.529702300342572e-34
-2.035214006026023e-34
-2.127172648561778e-34
-1.723271968730885e-34
-1.057472952408642e-34
-4.736403230021629e-35
-1.456324280811251e-35
-2.749884256525837e-36
-2.545043889046546e-37
-1.762726618323703e-38
-1.522187631649543e-38
-1.146850106037188e-38
-7.107175530901307e-39
-3.492999049354474e-39
-1.289350021832657e-39
-3.985040186726677e-42
-9.661006888682579e-41
-1.10121234168567e-39
-7.795396015113815e-39
-3.847196729699562e-38
-1.404543474651515e-37
-3.923079865418472e-37
-8.544955467175364e-37
-1.464979335831379e-36
-1.980238280200974e-36
-2.099196566243869e-36
-1.722934434056169e-36
-1.07082489515058e-36
-4.862048644640197e-37
-1.520668078345495e-37
-2.964761761623492e-38
-3.279887474941612e-39
-7.297006627132835e-40
-6.901885599557345e-40
-5.674250669619506e-40
-3.850734317696652e-40
-2.08940796821816e-40
-8.690175840029645e-41
-8.536637122219462e-45
-2.115899647033747e-43
-2.456893546101804e-42
-1.76917392439116e-41
-8.869469201522706e-41
-3.2852718209143e-40
-9.300209194957515e-40
-2.051535199123803e-39
-3.560942105063632e-39
-4.874693122672137e-39
-5.239790332008105e-39
-4.372479049116088e-39
-2.777614669951811e-39
-1.303549138802378e-39
-4.347929595995625e-40
-1.04381707096293e-40
-3.090813743951727e-41
-2.55654015696736e-41
-2.645663304738363e-41
-2.36263787725328e-41
-1.751414954783631e-41
-1.053054689354032e-41
-5.021921753586674e-42
-6.409237361087034e-49
-1.892548197865644e-47
-2.615499937307684e-46
-2.248767853514379e-45
-1.350915435829749e-44
-6.021164550487273e-44
-2.061640645519159e-43
-5.536692711212306e-43
-1.180078154391456e-42
-2.006720497539416e-42
-2.723010557853712e-42
-2.937508307924956e-42
-2.507746097930333e-42
-1.70645059027945e-42
-9.949191115313209e-43
-6.487522434295082e-43
-6.347585885956989e-43
-7.642561672303805e-43
-8.641701506386162e-43
-8.407944187531732e-43
-6.876797326431926e-43
-4.689312597012247e-43
-2.682003410203986e-43
-3.484141006899954e-51
-1.055354239401753e-49
-1.491244166090803e-48
-1.309193914831006e-47
-8.022361610700656e-47
-3.644740646351444e-46
-1.271703205554234e-45
-3.481124158504831e-45
-7.570483103045265e-45
-1.316515651112512e-44
-1.835116265767428e-44
-2.052579171958406e-44
-1.856980652128105e-44
-1.420693570836446e-44
-1.080103002921101e-44
-1.079398393949808e-44
-1.434587766088345e-44
-1.976034708490895e-44
-2.45227634539128e-44
-2.637549621167722e-44
-2.444727837541845e-44
-1.97512712852252e-44
-1.432222328500712e-44
-1.002508060152521e-53
-3.094330082973609e-52
-4.451678603854278e-51
-3.982631738995646e-50
-2.490169504409792e-49
-1.156641534032374e-48
-4.137757708359414e-48
-1.166210934574e-47
-2.627904007874909e-47
-4.78235013536095e-47
-7.093401232524008e-47
-8.712546325804481e-47
-9.254076301807731e-47
-9.543333838427631e-47
-1.157197948002893e-46
-1.759385029934604e-46
-2.88969640601288e-46
-4.472888594242403e-46
-6.190866196672254e-46
-7.59200810621918e-46
-8.338461670061262e-46
-8.390175894623618e-46
-7.92311799466077e-46
-1.4456081752013e-56
-4.629076019163566e-55
-6.930690386205904e-54
-6.489025014054899e-53
-4.275467529257018e-52
-2.110640418182352e-51
-8.111527721669322e-51
-2.489826836238522e-50
-6.220176259273318e-50
-1.286051116194388e-49
-2.247481077085347e-49
-3.450857958436612e-49
-5.036224725553396e-49
-7.873318270503105e-49
-1.414574439277208e-48
-2.750686142434575e-48
-5.230287602719148e-48
-9.182320593438419e-48
-1.465449250439584e-47
-2.139213311223097e-47
-2.89783867699357e-47
-3.686765520128676e-47
-4.411264789224566e-47
-1.394562337441308e-59
-5.018665022658781e-58
-8.496783548900037e-57
-9.065561121305277e-56
-6.856897443818971e-55
-3.912893035558682e-54
-1.749772007871271e-53
-6.290609693995551e-53
-1.854629741661579e-52
-4.57573011983212e-52
-9.733734849367271e-52
-1.885424005093495e-51
-3.634782271597746e-51
-7.596038212697193e-51
-1.726905659109897e-50
-3.987073563007873e-50
-8.792246542420041e-50
-1.805347014831603e-49
-3.444245658675556e-49
-6.13859598211986e-49
-1.02530751161668e-48
-1.600254103836633e-48
-2.318868469154539e-48
-3.208992967210459e-62
-1.254045583955671e-60
-2.294264794478689e-59
-2.636915237534028e-58
-2.14296300118522e-57
-1.311512488501112e-56
-6.285631259367421e-56
-2.425019804326495e-55
-7.711235644127991e-55
-2.0780684076813e-54
-4.962339464541489e-54
-1.13241123700927e-53
-2.71392372388733e-53
-7.15153668837378e-53
-1.989694058826789e-52
-5.471877735225314e-52
-1.430865312472877e-51
-3.511496709311812e-51
-8.064189476293525e-51
-1.729084070545157e-50
-3.447152709138418e-50
-6.365431352645579e-50
-1.090241682724899e-49
-7.648267351359251e-65
-3.109697818754321e-63
-5.92201515468995e-62
-7.097140112019475e-61
-6.025805642606173e-60
-3.862635676104085e-59
-1.946191894296156e-58
-7.943452862665338e-58
-2.704463870257142e-57
-7.994520947940859e-57
-2.192546175438462e-56
-6.137937974175275e-56
-1.890512235817856e-55
-6.335866104886178e-55
-2.162901969109773e-54
-7.136978110782862e-54
-2.221518669543622e-53
-6.460513496681358e-53
-1.746479044009037e-52
-4.372520126455742e-52
-1.012453586061641e-51
-2.177226800064714e-51
-4.413990949455402e-51
-1.405033116044941e-67
-5.966140136806745e-66
-1.186194366820882e-64
-1.485807826377253e-63
-1.320433926732676e-62
-8.879278055839215e-62
-4.712412122904873e-61
-2.043092489166545e-60
-7.526817599347079e-60
-2.504046330155909e-59
-8.273882125978422e-59
-2.993217911553415e-58
-1.207282536104714e-57
-5.092381551689573e-57
-2.101950048958756e-56
-8.195743538226054e-56
-2.975182716749011e-55
-9.995452625984407e-55
-3.100507473922574e-54
-8.887906471848739e-54
-2.369256747795144e-53
-5.965212384524811e-53
-1.46119539902344e-52
-1.60556006472936e-70
-7.208372907985692e-69
-1.511476423168611e-67
-1.99673087804695e-66
-1.872587617389205e-65
-1.331175514392887e-64
-7.504391985695629e-64
-3.499602165856078e-63
-1.430108006138438e-62
-5.623317506179671e-62
-2.390746172262466e-61
-1.156737191763108e-60
-6.011189000440618e-60
-3.092199084805966e-59
-1.502415373857309e-58
-6.767276345711681e-58
-2.808555087462197e-57
-1.073058352047642e-56
-3.784892942820476e-56
-1.242018488930972e-55
-3.851802807397263e-55
-1.160096455820142e-54
-3.524441967330064e-54
-3.837920590480583e-74
-1.960126412690074e-72
-4.639372740313147e-71
-6.892185108629764e-70
-7.249522832338248e-69
-5.773024747723883e-68
-3.653109776410472e-67
-1.933321444698425e-66
-9.263696599764706e-66
-4.556147612314431e-65
-2.572993548805524e-64
-1.643837530041882e-63
-1.076258929405406e-62
-6.715836226601699e-62
-3.875469789189421e-61
-2.049995773783637e-60
-9.93492969979823e-60
-4.427926915160169e-59
-1.829950819596036e-58
-7.118017630744466e-58
-2.670145436621028e-57
-9.9887290633971e-57
-3.851556230941103e-56
1
0.9999983220056313
0.9999980615598152
0.9975488724084581
1
0.9999962217181787
0.9999949001351196
1
1
0.9999977256164515
0.9999970776795412
1
1
0.9999999489100169
0.9999999739014137
0.9999999993844928
0.9793340474104915
1
1
1
0.2124308312054695
0.2916935327578192
0.3666105570061254
0.4827761756782646
-2.475187265749988e-19
4.440514840764125e-19
1.133579793112101e-19
0.004409016566328782
7.457567776219863e-06
1.916620476059269e-06
2.36078362816877e-21
4.200517660607212e-22
2.040054836660703e-07
1.613231563360147e-07
8.150069286436387e-08
1.865660185122524e-08
1.275241475280932e-15
1.33606052059974e-15
9.077239104841004e-10
5.186120159470908e-10
1.047969727650923e-14
1.600237095497016e-14
1.628228907626154e-14
1.655353612023508e-14
1.034769160827114e-14
1.670540691466579e-14
2.483514287248943e-14
4.270839743424537e-14
7.03288691053654e-15
1.108067922127294e-14
1.553382092227093e-14
2.796576733568638e-14
2.85414615146627e-15
4.237149280671939e-15
5.716423958289075e-15
8.857159759017609e-15
1.11967612503495e-15
1.688485754978892e-15
2.34973333813558e-15
3.370613636949975e-15
4.637933304985515e-16
6.864278501639924e-16
9.381173456369892e-16
1.236746593766501e-15
1.591531869401852e-16
2.144296820700142e-16
2.678977783992073e-16
3.721164038262562e-16
3.762942614670551e-17
4.490153132417561e-17
5.308306912311391e-17
9.481988922647301e-17
5.794097939770836e-18
6.282939005612785e-18
7.220248731707681e-18
1.768951534130925e-17
5.518745218631442e-19
5.20464625667024e-19
4.936324109029361e-19
6.178057570036894e-19
2.526670002351736e-20
1.341466196633126e-20
2.672929476401508e-21
-4.751106135882409e-35
1.199723401860564e-22
1.035618766094323e-23
3.875529528119159e-25
-4.288620080799501e-36
-2.250572293486469e-36
-4.334965104806933e-37
0
6.290196262306135e-37
-1.442257827863831e-36
-2.804414934268785e-37
-3.222657508689874e-38
-1.59726897500675e-38
-7.538405574607287e-37
-1.572118862265756e-37
-1.930276061673887e-38
1.229213811032126e-39
-3.121724171067033e-37
-7.455001176224833e-38
-1.044332093503885e-38
-2.101318212069202e-43
-1.007943483984093e-37
-2.830030547371085e-38
-4.625394962854438e-39
-1.236256894161766e-46
-2.219303594203503e-38
-7.59369699558793e-39
-1.514189046121836e-39
1.413083056204016e-49
-3.008709977641931e-39
-1.255934449241148e-39
-3.319904599117725e-40
3.047480590560509e-54
-3.147920065555107e-40
-1.683120146060734e-40
-7.973035672308616e-41
-2.50791020513152e-41
-2.568283140600217e-41
-1.523033024846105e-41
-9.077290237253096e-42
-5.470396542538368e-42
-1.861382108142126e-42
-1.210492591224808e-42
-7.947732823582117e-43
-5.293916536327185e-43
-1.326214227886945e-43
-9.697092662312023e-44
-7.123546284050009e-44
-5.258164486665101e-44
-9.69015332974287e-45
-7.992218946605768e-45
-6.544127153887577e-45
-5.313256488960625e-45
-7.084259012674076e-46
-6.505900580813962e-46
-5.871402394464835e-46
-5.210635772769221e-46
-4.917823657599827e-47
-4.983662215612019e-47
-4.954067964732826e-47
-4.850754432265009e-47
-3.111159407851301e-48
-3.500971678184728e-48
-3.902221895267503e-48
-4.34606222698203e-48
-1.756144026406712e-49
-2.24591376677833e-49
-2.90519084793383e-49
-3.840114375273787e-49
-8.712412602131969e-51
-1.307232755479267e-50
-2.02773199749941e-50
-3.255876015231227e-50
-3.635183657173111e-52
-6.546231923897565e-52
-1.227154827291086e-51
-2.366639054632326e-51
-1.118350161842887e-53
-2.41187804799634e-53
-5.365201397277495e-53
-1.210663276639357e-52
-1.553113355827001e-55
-3.977955863124073e-55
-1.038384874637997e-54
-2.722158167738366e-54
0.02054834884212314
5.120442751654827e-31
5.236555061517488e-31
2.281644761937995e-31
-4.593902639733351e-29
6.060284873229751e-29
1.854689794173923e-12
1.112611705878248e-12
-1.891779994736881e-29
5.539786027570332e-32
1.248479947695268e-33
0
2.567612197285265e-31
2.6966777480359e-32
-4.138036228465283e-21
-2.918550964083347e-20
1.679483145917954e-12
1.916875417262694e-12
1.782054725358636e-12
0.6698242788465809
0.05379786021025436
0.06812273861846994
0.2426573043178707
0.2220451733876197
0.02952469564902623
5.568113588183775e-20
1.772190493223898e-18
0.02933682878376495
0.3412801544300016
0.5693202926375988
0.5369177851868944
0.265745607901802
0.001477165023334371
0.003919815389177029
0.004624012804404364
1.769577052717935e-12
1.778711959980819e-12
1.778788253274735e-12
0.9993273650354203
0.7595654526858503
0.7913391913145894
0.9339007729773949
0.9290092346333447
0.7312912477195082
0.4888823319664114
0.5128875576753528
0.7548003722550823
0.9732638221457887
0.9998668232827258
0.9950551228846266
0.9303724009471455
0.8533730546868057
0.8296120336951711
0.5629621581924971
0.1446004974695419
0.001384108697200182
1.778712014444748e-12
1
1
1
1
1
1
0.9976107936424033
0.9990781688297153
1
1
1
1
1
1
1
1
0.9536376299328838
0.4388800548128465
0.1280200778028535
1
1
1
1
1
1
1
1
1
1
1
1
1
1
1
1
1
0.9604813061808004
0.655475966646768
0.684600787428112
0.7846146723126571
0.8353332520147519
0.8422238986267757
0.8335988999323336
0.8055714995281027