/*--------------------------------*- C++ -*----------------------------------*\
| =========                 |                                                 |
| \\      /  F ield         | OpenFOAM: The Open Source CFD Toolbox           |
|  \\    /   O peration     | Version:  2206                                  |
|   \\  /    A nd           | Website:  www.openfoam.com                      |
|    \\/     M anipulation  |                                                 |
\*---------------------------------------------------------------------------*/
FoamFile
{
    version     2.0;
    format      ascii;
    arch        "LSB;label=32;scalar=64";
    class       volScalarField;
    location    "0.4";
    object      p;
}
// * * * * * * * * * * * * * * * * * * * * * * * * * * * * * * * * * * * * * //

dimensions      [1 -1 -2 0 0 0 0];

internalField   nonuniform List<scalar> 
2268
(
95451.00278820837
95452.28209410042
95452.01402440823
95451.50568932777
95450.80881769928
95449.93452524206
95449.04968819552
95448.41018244624
95448.30831664585
95449.06469436781
95451.02661273163
95454.55549386672
95460.00315484643
95467.68105498314
95477.83192131044
95490.51532742233
95505.78001345789
95523.38998390848
95542.92317531945
95563.68832996939
95584.75473048304
95603.48982416918
95622.23006264344
95391.14664717553
95392.42759675074
95392.1564550961
95391.6560246978
95390.96176933186
95390.09048008201
95389.21656062425
95388.59481523959
95388.51573089387
95389.29982529947
95391.2945524708
95394.8604606311
95400.34608687277
95408.05208342466
95418.17349173472
95430.9539299998
95446.21119445765
95463.77504063713
95483.22486343258
95503.88339489656
95524.92930809189
95543.73584213064
95563.25643935858
95330.72816020103
95332.02023227427
95331.75640312419
95331.27599074115
95330.59126131031
95329.7278579436
95328.86885831761
95328.26772583513
95328.21303183871
95329.02581194459
95331.05489460693
95334.66167600219
95340.19427948313
95347.95338818149
95358.16330240358
95370.8576896954
95386.0425881066
95403.43271226015
95422.52124340793
95442.54462653503
95462.72556487891
95480.45485587003
95499.98738145499
95269.64382793305
95270.93549477636
95270.66384232797
95270.19067466064
95269.50288769264
95268.63634505603
95267.78257530792
95267.19408057565
95267.15813776842
95267.99698081058
95270.06176917092
95273.71571342104
95279.30618400579
95287.12537693436
95297.35742342897
95310.07873741287
95325.18207927339
95342.30975827729
95360.81208304106
95379.73997373717
95398.26139085002
95413.77950444313
95432.5274990138
95207.947183779
95209.24080207806
95208.95498844645
95208.48214643681
95207.78416852669
95206.907227597
95206.05044028084
95205.46596845714
95205.44082903364
95206.29951766288
95208.39704761417
95212.10050832317
95217.75899976706
95225.65986526107
95235.97348973014
95248.72087280967
95263.73453747907
95280.53327019443
95298.25310178183
95315.62697650546
95331.57278536187
95343.33794329836
95359.65256964249
95145.62039719008
95146.93260246918
95146.63630351009
95146.16506886888
95145.45734387262
95144.56738691557
95143.70028705044
95143.10833497763
95143.07915746394
95143.9404712461
95146.05276059668
95149.78940597689
95155.50405409597
95163.48039806663
95173.86313407877
95186.65223377373
95201.59042587897
95218.0469668437
95234.86519977241
95250.27868784076
95262.58761157324
95268.31560625373
95278.45542949616
95082.38722509323
95083.73968442838
95083.44351755759
95082.98467582578
95082.28373465994
95081.39813827588
95080.5363544275
95079.95093096998
95079.93038283246
95080.80589362601
95082.94440677554
95086.72768563952
95092.51793610425
95100.60174804147
95111.11439287954
95123.95042355564
95138.83267934438
95154.95502504479
95170.80249301037
95183.90880634642
95191.40266295229
95187.85896564371
95183.7807938998
95017.81146221809
95019.15813473496
95018.83890872756
95018.36193975984
95017.65402100567
95016.77156496394
95015.92317659987
95015.36271596294
95015.38055477336
95016.31134435002
95018.52785383281
95022.41858260012
95028.35298725488
95036.61841278666
95047.32876259674
95060.33210471331
95075.28642488403
95091.20445615568
95106.17364621906
95116.84706765664
95118.48228489805
95101.6562883101
95066.32758906932
94435.3961126169
94435.24239979105
94435.00703949573
94434.67382382385
94434.25175129814
94433.7330562218
94433.12193497801
94432.46467245554
94431.85540761429
94431.38764209287
94431.08784728605
94430.92356321182
94430.86723932161
94430.9340828346
94431.15991074474
94431.57106714527
94432.181952278
94432.91530009238
94433.415106865
94435.36550040149
94435.20543795337
94434.96576198206
94434.62995857085
94434.20740599468
94433.68617421665
94433.06724172068
94432.3970479601
94431.7749820014
94431.3034088241
94431.00908983119
94430.85030395586
94430.79132296793
94430.84788090152
94431.06316021293
94431.4650670745
94432.0680758489
94432.80970352597
94433.33022811203
94435.35247336609
94435.17772031551
94434.9294589404
94434.58936889244
94434.16669546328
94433.6406250922
94433.00607351141
94432.31106352454
94431.66535682351
94431.18862045146
94430.90834398974
94430.76425187926
94430.70160016209
94430.73749314158
94430.9325798255
94431.31857163081
94431.90835049555
94432.6659775827
94433.24030572039
94435.35927623441
94435.16022632732
94434.8981117478
94434.55279205659
94434.13154797265
94433.59872612433
94432.93957820127
94432.20586084174
94431.5231424003
94431.03822675117
94430.78205547163
94430.66414708363
94430.59769229685
94430.59927904698
94430.76242597256
94431.12625712488
94431.6948427828
94432.46120050376
94433.12865072208
94435.38750596526
94435.15316186019
94434.87023601618
94434.52010024853
94434.10367764298
94433.56297787822
94432.86865961242
94432.07987683183
94431.34479939
94430.84801356785
94430.63020664442
94430.55465816548
94430.48724230395
94430.43619045058
94430.55318723705
94430.88971272235
94431.42622845763
94432.1743255082
94432.98393644342
94435.4383377897
94435.15683461509
94434.8427907602
94434.49056937559
94434.08470652312
94433.53627230517
94432.79439748965
94431.93157273193
94431.12868915219
94430.61664576229
94430.45543401664
94430.44164421939
94430.38222647269
94430.2538166079
94430.30806992213
94430.61361203151
94431.10648522111
94431.79441204078
94432.81826763068
94435.51205609593
94435.1724678826
94434.81140749552
94434.46434641464
94434.07715201746
94433.52274598539
94432.72047712725
94431.76421124813
94430.88471916494
94430.36101407321
94430.26769933832
94430.33385872285
94430.29791885885
94430.05811428522
94430.031749299
94430.29768341307
94430.73784719687
94431.33264136584
94432.59215784098
94435.60354526286
94435.16209404329
94434.76698376311
94434.44056560105
94434.08159169207
94433.52529337014
94432.65202237658
94431.58743570517
94430.63402265962
94430.11241309436
94430.01631349664
94430.2593014539
94430.24354031574
94429.84797734713
94429.7269418342
94429.92138488693
94430.30521477648
94430.81064931693
94432.18013394454
94915.66034415751
94916.93929866236
94916.63443778199
94916.10570736173
94915.3707788818
94914.48213669697
94913.64109740619
94913.10422402792
94913.16649179009
94914.16897026052
94916.49423462123
94920.53879073336
94926.6806421291
94935.20259585147
94946.18772762865
94959.44891051472
94974.67047688474
94990.62834612449
95004.69048473562
95011.84184299686
95002.99860523702
94957.51386073521
94793.44641209386
94773.18108379722
94774.57754199767
94774.29886918697
94773.7368245289
94772.93031800161
94771.94135050917
94770.96813904746
94770.2698383354
94770.15701752031
94771.00449285869
94773.26141007517
94777.4007285128
94783.92398194064
94793.22742478321
94805.4530867126
94820.13241618854
94835.5150401375
94852.88686316113
94868.80391035487
94877.15790226559
94868.78424963912
94834.18596132903
94763.43042838894
94636.72866283526
94637.81410247069
94637.38490263175
94636.69869423877
94635.77510109727
94634.65689307891
94633.4748650674
94632.40170219298
94631.6498962534
94631.48641507316
94632.2827529378
94634.45910353247
94638.63528143217
94645.58707220166
94656.12417268382
94670.33005806469
94688.86622585637
94711.67426743796
94736.2857175649
94754.9690491073
94758.23106454687
94742.36934829989
94703.23393560469
94568.19741084335
94568.48056401373
94568.33562347313
94568.07750398808
94567.7363978449
94567.3333471646
94566.901606292
94566.48749928318
94566.14657255892
94565.94026527239
94565.9668063931
94566.31155918427
94567.1124078882
94568.56798356317
94570.94255420369
94574.42903656748
94580.11624622771
94592.02142266634
94612.71892663228
94636.80640244299
94653.11792186477
94656.61635315974
94641.97508255026
94559.23823248412
94559.24143674874
94559.23713213592
94559.23125013802
94559.22196660467
94559.20886257045
94559.19155325144
94559.1698400883
94559.14413207649
94559.11576588996
94559.08655287669
94559.05864287942
94559.03272263653
94559.00843571889
94558.98684076246
94558.97372602815
94558.95043972036
94559.16696675826
94561.61519418056
94567.95096935786
94579.67008463309
94593.09623649786
94600.48559402089
94559.08433402964
94559.08507858022
94559.08069084385
94559.07409487033
94559.06410268974
94559.05024304945
94559.03221704713
94559.00998770085
94558.98403064458
94558.95541409039
94558.92559655625
94558.8961428574
94558.86813505262
94558.84142446819
94558.81567530058
94558.79024812033
94558.7581938754
94558.70392862332
94558.62916286822
94558.57536760395
94558.56693930049
94559.25303061193
94565.43313172215
94558.93988888367
94558.93933816205
94558.93473368665
94558.92746340098
94558.91670712455
94558.90197550405
94558.88296224564
94558.85967096243
94558.83262628899
94558.80288835314
94558.77191620637
94558.74100795497
94558.71118792937
94558.6809701857
94558.64972050884
94558.61650029718
94558.57673257624
94558.51430413677
94558.47830590954
94558.43841870557
94558.3733993076
94558.25356541817
94558.19238643702
94558.80052722954
94558.79912122778
94558.79411959295
94558.78612651837
94558.77451904227
94558.75876592855
94558.73856169739
94558.71394836476
94558.68548801806
94558.65422645082
94558.62163382457
94558.58895724487
94558.55703029365
94558.52479994023
94558.49349922218
94558.4633245351
94558.43179502447
94558.39502129977
94558.35324068079
94558.30498738385
94558.23234483236
94558.11137122892
94558.08380968463
94558.66374243904
94558.66168657655
94558.65616626163
94558.64741637577
94558.6349163554
94558.61810891797
94558.59672439627
94558.57087199792
94558.54115045913
94558.50858978761
94558.47460607029
94558.44012126373
94558.40548527523
94558.37298106762
94558.34571790155
94558.32014550222
94558.29174645107
94558.25914558349
94558.2226008143
94558.17986673485
94558.12465196558
94558.05733302314
94558.01231360169
94558.52858747373
94558.52603834159
94558.52004103592
94558.5106465167
94558.49740785011
94558.47977396101
94558.4575475515
94558.43093215584
94558.40055632143
94558.36751849655
94558.33312798015
94558.29819711435
94558.26352868456
94558.2329304306
94558.20773402657
94558.18314629162
94558.15642735858
94558.12722758594
94558.09533627803
94558.05819000855
94558.01666437596
94557.97353157587
94557.9342101822
94558.39485710647
94558.39197248137
94558.38565264609
94558.37583685624
94558.36215791156
94558.34410042533
94558.32156658197
94558.29488634516
94558.26474370115
94558.23238450113
94558.19900639083
94558.16555039244
94558.13354315702
94558.104614447
94558.07734524645
94558.05138437654
94558.02467689234
94557.99931755205
94557.97338651076
94557.94468354278
94557.9137846932
94557.88180805976
94557.84888167071
94558.26264420796
94558.25956083754
94558.25311871608
94558.24313777873
94558.22937068461
94558.2113666771
94558.18912223006
94558.16319513955
94558.13430633843
94558.10371749836
94558.07239043176
94558.04141137951
94558.01203632091
94557.984732852
94557.9577162128
94557.9324459566
94557.90820779788
94557.88500341994
94557.86263260739
94557.83750288135
94557.80956139613
94557.77915145224
94557.74696465523
94558.13203510646
94558.12884302376
94558.12246834727
94558.11256522404
94558.09901210781
94558.08148092721
94558.06018848802
94558.0356412962
94558.00868340392
94557.98036344044
94557.95149757706
94557.92307680819
94557.89582933723
94557.86985116889
94557.84462912017
94557.82006174389
94557.79657840084
94557.77236716487
94557.74855063995
94557.72290130523
94557.69459456607
94557.66348615073
94557.6302884301
94558.00295176588
94557.9997498811
94557.9935377192
94557.98388630366
94557.97080030273
94557.95406647045
94557.93397611231
94557.91103573771
94557.88604031845
94557.8597837456
94557.83300160378
94557.80639469143
94557.78039173131
94557.75505250003
94557.7301114313
94557.70525217567
94557.68020113268
94557.65415219049
94557.62822231502
94557.60070969061
94557.5706601572
94557.5374886209
94557.50160651146
94557.87523338239
94557.87208079179
94557.86606682383
94557.85674156398
94557.84420386261
94557.82831922536
94557.80939337162
94557.78789615692
94557.7644776938
94557.7397697953
94557.7143629679
94557.68874232468
94557.66318211066
94557.63769371147
94557.61206978197
94557.58603999135
94557.55928352673
94557.5311247455
94557.5029473313
94557.47269742264
94557.43990413862
94557.40354800393
94557.36365274855
94557.74867503665
94557.74558475555
94557.73975544366
94557.73074759809
94557.71871717767
94557.70357894438
94557.68561921069
94557.66523487387
94557.64294184603
94557.61924631461
94557.59460280779
94557.56935862603
94557.54369909676
94557.51763331553
94557.49102336603
94557.46364349239
94557.43517005263
94557.40509863854
94557.37367346261
94557.34037486438
94557.30428675906
94557.26397421717
94557.21922037397
94557.6230681583
94557.62003274256
94557.61435485055
94557.60561265018
94557.59399633392
94557.57944785582
94557.56221805306
94557.54262976027
94557.52109147934
94557.49800496119
94557.47372218946
94557.44850301713
94557.42248581444
94557.39567934077
94557.36796611044
94557.33912741615
94557.30883481757
94557.27664633103
94557.2421811099
94557.20542878112
94557.16568253996
94557.1209581235
94557.07101787353
94557.49825324131
94557.49526214016
94557.48969907234
94557.48116363063
94557.46986512167
94557.45575933416
94557.43905972196
94557.42002471088
94557.39897841238
94557.37623937136
94557.35208217936
94557.32670292657
94557.30019911402
94557.27256077589
94557.24366983438
94557.2133043951
94557.18114124706
94557.14675458551
94557.10966433733
94557.06921338476
94557.02579835171
94556.97642255365
94556.92149402726
94557.37413479388
94557.3711796611
94557.36570298632
94557.35732603651
94557.34626759615
94557.33249048385
94557.31617434139
94557.29752455601
94557.27679736103
94557.25424302224
94557.23007257523
94557.20442896595
94557.17737069813
94557.14886348517
94557.11877709767
94557.0868850728
94557.05286210305
94557.01629753674
94556.97667681011
94556.93337935027
94556.88580101893
94556.83201077767
94556.77273967129
94557.25066975852
94557.2477458729
94557.24233756815
94557.23408646477
94557.22321394314
94557.20968644686
94557.19365416883
94557.17527891017
94557.15476073445
94557.13229214199
94557.10803011488
94557.0820718949
94557.05444003506
94557.02507409958
94556.99382627358
94556.96045912209
94556.92464466952
94556.88596308317
94556.84390373141
94556.79785371223
94556.7469457134
94556.68964196205
94556.62589068824
94557.12784639772
94557.12495197846
94557.11960297247
94557.11145909529
94557.10073900622
94557.08741079585
94557.07159889871
94557.05342888147
94557.03305361002
94557.01061625069
94556.98622729973
94556.95994390963
94556.93175600095
94556.90157793122
94556.86924347552
94556.83450226365
94556.79701634419
94556.75635942731
94556.71202595146
94556.66339969203
94556.60952425495
94556.54916079574
94556.48199623727
94557.00566488034
94557.00280003477
94556.99750757919
94556.98946265434
94556.97887700422
94556.96571903555
94556.9500903406
94556.93208602002
94556.91181905217
94556.88939050777
94556.86487086621
94556.83828219659
94556.80958548737
94556.77867224482
94556.74535889327
94556.70938208916
94556.67039426803
94556.6279676038
94556.58160780612
94556.53068620479
94556.47422723203
94556.41125316707
94556.34139132856
94556.88412406173
94556.88128994317
94556.87605515101
94556.86810767041
94556.85764912379
94556.84464731843
94556.82918340334
94556.81132671202
94556.79115658974
94556.76873851397
94556.74410872608
94556.71725903689
94556.68812526326
94556.65657889188
94556.62242104248
94556.58537699698
94556.54509253327
94556.50114331914
94556.4530448896
94556.40015742919
94556.34153603637
94556.27640486472
94556.20450255972
94556.763214406
94556.76041265855
94556.7552387036
94556.74739122421
94556.7370594534
94556.72421005624
94556.70890589128
94556.69119453966
94556.67112727147
94556.64873977302
94556.62403945191
94556.5969924673
94556.56751320107
94556.53545614517
94556.50060958581
94556.4626897604
94556.42133894653
94556.3761388472
94556.3266126189
94556.27211553181
94556.21175007116
94556.1449070746
94556.07148908393
94556.64291517889
94556.64014761908
94556.63503862555
94556.62729601553
94556.6170952416
94556.60440165106
94556.58926190795
94556.57170538705
94556.55176020709
94556.52943754122
94556.50472100209
94556.47755549845
94556.44783768234
94556.41540818333
94556.38004514428
94556.34145831226
94556.29928910633
94556.25312605775
94556.20249766202
94556.14675773944
94556.08505718231
94556.01692376005
94555.9424003427
94556.52319399879
94556.5204624616
94556.51542290347
94556.50779129307
94556.49772867617
94556.48519926681
94556.47023560655
94556.45285206716
94556.43305800753
94556.4108448847
94556.38617720894
94556.35898287591
94556.32914451575
94556.2964921331
94556.26079656553
94556.22176366868
94556.17903613088
94556.13220920082
94556.08081430699
94556.0242038117
94555.96156983355
94555.89254585214
94555.81726611132
94556.40400747086
94556.40131374198
94556.39634812542
94556.3888342557
94556.37891876143
94556.36656519398
94556.35179405291
94556.33460763583
94556.31500048154
94556.29294868621
94556.26840203916
94556.24127553648
94556.21144153501
94556.17872279005
94556.14288585159
94556.10363538805
94556.06061730323
94556.01343331509
94555.96161563088
94555.90451297896
94555.84134745497
94555.77182871393
94555.69613756378
94556.28530224935
94556.28264801631
94556.27776066217
94556.27037139413
94556.26061286613
94556.24844863349
94556.23388924463
94556.21692762389
94556.19754705002
94556.17571222658
94556.15136232587
94556.12440345326
94556.09470149988
94556.06207552605
94556.02629107234
94555.98705460361
94555.94401743382
94555.89678809396
94555.84489840145
94555.78769087416
94555.72440585594
94555.65480638396
94555.57909321085
94556.16701624911
94556.16440303515
94556.15959786439
94556.15233971769
94556.14274802031
94556.13078711402
94556.11645966463
94556.0997517256
94556.08063855195
94556.05907708705
94556.03499973792
94556.00830762211
94555.97886402077
94555.94648804146
94555.91094782928
94555.87195509952
94555.82916944187
94555.78220777179
94555.73060211756
94555.67368749021
94555.61071344807
94555.54148452182
94555.46621843474
94556.04907993447
94556.04650900705
94556.04178929923
94556.03466797905
94556.02525216773
94556.01350781821
94555.99943171677
94555.98300535539
94555.96419890887
94555.94296488569
94555.91923253048
94555.89290174445
94555.86383706522
94555.83186156351
94555.796749965
94555.75822327942
94555.71595318845
94555.66956822546
94555.6186035952
94555.56238812521
94555.5001766793
94555.43181681777
94555.35756510976
94555.93141769049
94555.92888995461
94555.92425808586
94555.9172779998
94555.90804551609
94555.89652900246
94555.88272125226
94555.86660130022
94555.84813689644
94555.82727913714
94555.80395744162
94555.77807408376
94555.74949866039
94555.71806221428
94555.68355033222
94555.64569794574
94555.60419368335
94555.55868274251
94555.50870908769
94555.45360010059
94555.39261861031
94555.32567099127
94555.25309802406
94555.81394926639
94555.8114651536
94555.80692233343
94555.80008612089
94555.79104203684
94555.77976158894
94555.76623530152
94555.75044162681
94555.73234824235
94555.71190752696
94555.68905209401
94555.66368990939
94555.63569924909
94555.60492308963
94555.57116230942
94555.53417082026
94555.49365994621
94555.44929822411
94555.40064639138
94555.34703868431
94555.28775543593
94555.22279102269
94555.15263564118
94555.69659135093
94555.69415071778
94555.68969675036
94555.68300486203
94555.67415121652
94555.66311105841
94555.64987415903
94555.63442000026
94555.61671820177
94555.59672474266
94555.57437805292
94555.549594725
94555.52226499561
94555.492247491
94555.45936271372
94555.4233887388
94555.3840658446
94555.34109368053
94555.29405953948
94555.24231580803
94555.1851760633
94555.12276251658
94555.0557937003
94555.57925927354
94555.57686132929
94555.5724944337
94555.56594480573
94555.55728008364
94555.54647967158
94555.53353384999
94555.51842443987
94555.50112463467
94555.48159589223
94555.45978459698
94555.43561838998
94555.40900223398
94555.37981363042
94555.34789660717
94555.3130582701
94555.27507402358
94555.23368266338
94555.18850849965
94555.13893517488
94555.08432975574
94555.02498835814
94554.96194163659
94555.46186874855
94555.45951205566
94555.45522879824
94555.44881667598
94555.44033548184
94555.42976898265
94555.41710893699
94555.40234047188
94555.38544155842
94555.36638051391
94555.34511324567
94555.3215802287
94555.29570321544
94555.26738104748
94555.23648436645
94555.20285333421
94555.16630383224
94555.12662104479
94555.08347604245
94555.03629696564
94554.98452659197
94554.92868138137
94554.8701815559
94555.34433749384
94555.34202011069
94555.33781552663
94555.33153350498
94555.32322648491
94555.31288254734
94555.30049557968
94555.2860546141
94555.2695431443
94555.25093718299
94555.23020308922
94555.20729520799
94555.18215326956
94555.15469889881
94555.12483124972
94555.09242618464
94555.057343811
94555.01942101502
94554.978383111
94554.93371418002
94554.88495382458
94554.83287879612
94554.77935752308
94555.22658677847
94555.22430654918
94555.22017443557
94555.214012695
94555.20586670496
94555.19572855017
94555.18359457151
94555.1694579273
94555.15330790218
94555.13512846615
94555.11489666616
94555.09258091876
94555.06813910912
94555.04151585668
94555.01263921853
94554.98142154566
94554.94776860246
94554.91157130132
94554.87261298121
94554.83044140437
94554.78470974286
94554.73648140091
94554.68810076344
94555.10854412636
94555.10629890407
94555.10223195762
94555.09617835768
94555.08817658787
94555.07822220177
94555.06631399544
94555.0524490883
94555.03662233976
94555.01882534933
94554.99904536935
94554.97726420847
94554.95345699409
94554.92759018989
94554.8996194271
94554.86949214579
94554.8371583601
94554.80256155349
94554.76554208811
94554.7257139343
94554.68285321193
94554.63831619847
94554.59491022181
94554.99015105894
94554.98793875739
94554.98392822099
94554.97796776224
94554.97008926459
94554.9602910968
94554.94857423019
94554.9349392345
94554.9193858639
94554.90191244289
94554.88251523739
94554.86118789251
94554.83792077212
94554.81269965087
94554.78550463221
94554.75631454532
94554.72511918619
94554.69190899082
94554.65657498906
94554.61879380129
94554.57846428966
94554.53721596942
94554.49825716039
94554.87137974454
94554.86919880315
94554.865234838
94554.85934958419
94554.85156903446
94554.84189378256
94554.83032660268
94554.81687081375
94554.80153006049
94554.78430802151
94554.76520816352
94554.74423361404
94554.72138695548
94554.69666945415
94554.67008092524
94554.64162569887
94554.61132590778
94554.57920918324
94554.54520558479
94554.5090449167
94554.47073853006
94554.43213868307
94554.39673772248
94554.75223355809
94554.75008040403
94554.74615414198
94554.74032551018
94554.73261570164
94554.7230271805
94554.71156430272
94554.69823247826
94554.68303809568
94554.66598846983
94554.64709187958
94554.62635776697
94554.60379687327
94554.57942087154
94554.55324297711
94554.52528514031
94554.49559179177
94554.46421488258
94554.43110874922
94554.39604417606
94554.35912962416
94554.32236485681
94554.28936419476
94554.6324888886
94554.63036671194
94554.62646969728
94554.62067502849
94554.61300342492
94554.60345895131
94554.59204671631
94554.57877285179
94554.56364469462
94554.54667091877
94554.52786173859
94554.50722927498
94554.48478785032
94554.46055379856
94554.43454645231
94554.40679597351
94554.37735702847
94554.34629140804
94554.31356173001
94554.27896096742
94554.2426635178
94554.20673567866
94554.17465446259
94496.20895378081
94487.77336626043
94495.22329158099
94440.56088931955
94685.31925361972
94642.68381541876
94592.4558249335
94520.64048616776
94643.56809034877
94601.50511361212
94562.89193870273
94524.03421281118
94609.73486115159
94586.68434284556
94566.60192004882
94547.29282128216
94593.84932535006
94586.34307088198
94579.13371830944
94570.72846502511
94572.07571501608
94577.33882041369
94581.98546425681
94585.70548449155
94558.13659631257
94558.09470497815
94558.07776909207
94558.1696099949
94558.05155736317
94558.02377147692
94557.99068712533
94557.94882599254
94557.97610157616
94557.94884610023
94557.92056227932
94557.89037677832
94557.89982596887
94557.87611997976
94557.85432790636
94557.83307535511
94557.8175405939
94557.7953212704
94557.7756318035
94557.75686033077
94557.7155179049
94557.69328722116
94557.67360956557
94557.65449592624
94557.598076664
94557.5754100026
94557.55455006521
94557.53325295793
94557.46751322091
94557.44352388625
94557.42022188018
94557.39541143156
94557.3268234704
94557.3007668998
94557.27412448711
94557.24508433453
94557.17907473496
94557.15037334671
94557.11994838364
94557.08659248342
94557.02721966828
94556.99559700127
94556.96152437346
94556.92431676063
94556.87388059006
94556.83946324541
94556.80234691704
94556.76205826169
94556.72122647426
94556.68447105508
94556.64508558552
94556.60255784492
94556.57091306808
94556.53251812045
94556.49153112863
94556.4475121999
94556.42452628181
94556.38490503169
94556.34276682664
94556.29784543306
94556.28235139634
94556.24192186219
94556.19913257999
94556.15366480791
94556.14443189706
94556.1034939652
94556.06033916269
94556.01455791687
94556.01070297642
94555.96941376806
94555.92601416301
94555.88004007148
94555.8810819994
94555.83950420195
94555.79587715032
94555.74973108854
94555.75554253573
94555.71370020082
94555.66981963476
94555.62345765927
94555.63414437184
94555.59207184408
94555.54792143137
94555.50128275646
94555.51702686246
94555.47480820031
94555.43042606594
94555.38348401099
94555.40437443565
94555.36217246736
94555.31768550834
94555.27049162194
94555.29635990532
94555.25443361723
94555.21007926753
94555.16279412407
94555.19307201449
94555.15178042914
94555.10791318218
94555.06081965311
94555.09443478848
94555.054225197
94555.01130539349
94554.96480199913
94555.00012870417
94554.96150805491
94554.92007134801
94554.87464492815
94554.90952608234
94554.87301618568
94554.8336246174
94554.7898040555
94554.8216540493
94554.78773396528
94554.75091224605
94554.70920715085
94554.73519601014
94554.70423758408
94554.67040156678
94554.63123309541
94554.64854062794
94554.6207460078
94554.59013298179
94554.55376561177
94554.55987952398
94554.53522943336
94554.50783916452
94554.47432198352
94554.46733258474
94554.44555169783
94554.42111024742
94554.39024591788
94554.36913575228
94554.34970690502
94554.32769588783
94554.29907003393
94554.26416036281
94554.24639758117
94554.22607869245
94554.19904052022
94554.15013598381
94554.13292257256
94554.11314288228
94554.08680587489
94434.94654642044
94435.13705558539
94434.68434524546
94434.41448140796
94434.09226708495
94433.53136548436
94432.58544636267
94431.42392827514
94430.3530578689
94429.97332236379
94430.03012087443
94430.28907930196
94430.21175493681
94429.63636987071
94429.24532841025
94429.28971547569
94429.5884108835
94429.98496699157
94431.3690796255
94410.59586274193
94432.77178081706
94432.41553535656
94423.2430737625
94423.20667526546
94432.61772518118
94432.28358483646
94431.56379165567
94430.40376803343
94415.53214287871
94397.68631712548
94397.98918362136
94412.51739829539
94428.97742541393
94428.62875187799
94428.68317604579
94429.16934639362
94429.332394479
94430.93871938973
94453.44549543485
94393.93552508077
94403.38058050541
94413.72928161573
94410.85451320073
94392.53314347903
94404.04301943564
94404.6260576629
94392.25940168774
94406.79180308866
94424.14844157959
94427.24341202687
94413.64181028389
94381.08232867067
94378.48778084776
94395.0891915613
94416.14019725361
94431.1344090787
94433.33603012039
94512.11368408386
94473.19685331528
94467.34066764379
94468.63237798995
94464.02968204071
94446.15518402157
94430.17302563362
94430.32657032512
94445.54076586328
94467.82124899584
94483.8604906033
94488.55235470666
94483.48052722422
94477.25832054956
94490.97514082392
94520.12428964402
94484.77000209497
94427.61190382988
94426.9439493777
94557.61830861736
94543.95262704915
94536.42914390207
94533.02640046709
94530.28588354132
94525.74332397114
94521.91247191503
94525.45967609448
94535.03020025707
94544.77871292159
94553.42279886451
94558.3582816407
94559.54027856608
94568.73252262663
94602.30151966559
94665.41478921234
94749.86102351699
94864.70844407908
95062.09567601625
94589.92020545783
94590.57318290947
94587.46236719594
94586.66273901092
94587.04629399389
94588.47688446123
94590.27878623866
94592.26860332157
94593.89680663226
94595.10497504461
94597.33616032786
94601.00169626498
94608.75457642534
94623.99969721891
94677.16915601434
94779.24071604724
94920.0318321622
95121.9297974768
95446.10829099767
94559.77548227592
94562.52925335531
94564.60746310804
94565.08114188978
94564.7660687474
94563.82899393968
94562.60401934141
94561.57199635729
94560.79723293682
94560.87881438981
94561.44441409268
94562.67009036767
94566.34039695741
94588.3518416732
94667.75627075412
94814.05053717909
94976.56446981107
95150.86667707661
95395.73809080642
94557.86988828421
94557.85859280593
94557.82400153945
94557.80662417988
94557.82974420683
94557.91312384319
94558.06653526261
94558.30055764144
94558.61857955354
94558.99031878199
94559.40381771096
94559.84004338042
94559.89048255794
94561.59164946749
94585.35482794976
94756.29473415771
94940.12801372235
95070.87460905271
95245.33405034537
94557.84493792336
94557.82561102157
94557.80840867036
94557.80078547748
94557.83112078176
94557.91928491401