/*--------------------------------*- C++ -*----------------------------------*\
| =========                 |                                                 |
| \\      /  F ield         | OpenFOAM: The Open Source CFD Toolbox           |
|  \\    /   O peration     | Version:  2206                                  |
|   \\  /    A nd           | Website:  www.openfoam.com                      |
|    \\/     M anipulation  |                                                 |
\*---------------------------------------------------------------------------*/
FoamFile
{
    version     2.0;
    format      ascii;
    arch        "LSB;label=32;scalar=64";
    class       volScalarField;
    location    "0.4";
    object      p_rgh;
}
// * * * * * * * * * * * * * * * * * * * * * * * * * * * * * * * * * * * * * //

dimensions      [1 -1 -2 0 0 0 0];

internalField   nonuniform List<scalar> 
2268
(
95480.47217968661
95481.75148558317
95481.483415892
95480.97508081274
95480.27820918556
95479.40391672935
95478.51907968332
95477.87957393391
95477.77770813258
95478.53408585253
95480.49600421294
95484.02488534276
95489.47254631466
95497.15044643999
95507.30131275064
95519.98471884163
95535.24940484624
95552.85937523734
95572.39256650543
95593.15772075078
95614.22411990106
95632.95920740017
95651.69749971524
95479.55482189594
95480.83577146172
95480.56462979445
95480.06419938488
95479.36994401338
95478.49865476544
95477.62473531741
95477.00298995091
95476.92390563281
95477.70800007645
95479.70272729646
95483.26863551444
95488.75426181787
95496.46025842517
95506.5816667656
95519.36210499627
95534.61936933092
95552.18321523118
95571.63303740745
95592.29156736887
95613.33747617427
95632.14399194685
95651.65813739432
95478.07511275848
95479.36718462208
95479.103355292
95478.62294275132
95477.93821321925
95477.07480982502
95476.21581025393
95475.61467792113
95475.55998418764
95476.37276469174
95478.40184790826
95482.00863002539
95487.54123438684
95495.30034407925
95505.51025931226
95518.20464729609
95533.3895459865
95550.7796698952
95569.86819995317
95589.8915802524
95610.07251088375
95627.80177212057
95647.32355415926
95475.92953088041
95477.2211965926
95476.94954314677
95476.47637464205
95475.78858710575
95474.92204422521
95474.06827460307
95473.47978043804
95473.44383874434
95474.2826835782
95476.34747454984
95480.00142234965
95485.59189746698
95493.41109581199
95503.6431482919
95516.36446735037
95531.46781283546
95548.59549390101
95567.09781872075
95586.02570627008
95604.54711298208
95620.06518677041
95638.80599022246
95473.17155512724
95474.46516952907
95474.17935232287
95473.70650736211
95473.00852731909
95472.13158518389
95471.27479774611
95470.6903271449
95470.66519067173
95471.52388447942
95473.62142241148
95477.32489445921
95482.98340097989
95490.88428527441
95501.19793162899
95513.94533534352
95528.95901681946
95545.75776238373
95563.47760216348
95580.85147879341
95596.7972784689
95608.56239035042
95624.87662557076
95469.78325315646
95471.09544837542
95470.79913978215
95470.32789710283
95469.62016584161
95468.73020454434
95467.86310268621
95467.27115168351
95467.24197936364
95468.10330388857
95470.21561124129
95473.95228367188
95479.66696939403
95487.64336220089
95498.02615761029
95510.8153183477
95525.75356417423
95542.21015108105
95559.02842038665
95574.44193214184
95586.7508606792
95592.4788129761
95602.61820149576
95465.48823140764
95466.84066991232
95466.5444818891
95466.08562189288
95465.38466530194
95464.49905646176
95463.6372640995
95463.05183769281
95463.03129455958
95463.90682160427
95466.04536631808
95469.82869651835
95475.61902227611
95483.70293625948
95494.21571029916
95507.05188471035
95521.93427505823
95538.05674496546
95553.90432173231
95567.01072044519
95574.50462820863
95570.96091630564
95566.8822975572
95459.85010503624
95461.19674130075
95460.87747525841
95460.40046999796
95459.69251819508
95458.81003222973
95457.96161908633
95457.40114206141
95457.41897744195
95458.34978298681
95460.566335881
95464.45714457048
95470.39167479629
95478.6572786896
95489.36786318052
95502.37148727149
95517.32608635564
95533.244392354
95548.21384181808
95558.88748774533
95560.52287080362
95543.69694041924
95508.36783355675
94435.42415955848
94435.2704467322
94435.03508646565
94434.70187082571
94434.27979828839
94433.7611031327
94433.14998177781
94432.49271918225
94431.88345436625
94431.41568899043
94431.11589442703
94430.9516106728
94430.89528703268
94430.96213075428
94431.18795868561
94431.59911473874
94432.209999592
94432.94334828042
94433.44315837155
94435.4496413884
94435.28957946977
94435.04990509972
94434.71410394662
94434.29155345679
94433.77032322167
94433.15139249874
94432.48120213191
94431.85914223675
94431.3875777639
94431.09326879299
94430.93449311118
94430.87551784444
94430.93207977203
94431.14735696484
94431.54925069008
94432.15224707928
94432.89389207785
94433.41449750082
94435.49270751128
94435.31796096441
94435.0697133174
94434.72964350491
94434.3069906645
94433.78093920973
94433.14641175856
94432.45144255926
94431.80580143906
94431.3291521108
94431.04896509247
94430.90494680523
94430.84231903742
94430.8782287815
94431.07328792174
94431.45917022208
94432.04884505589
94432.80658756649
94433.381489133
94435.555621045
94435.35659362467
94435.09454552751
94434.74932209324
94434.32818249862
94433.79546845531
94433.13646446825
94432.40298348747
94431.72062847203
94431.23616957829
94430.9804154466
94430.86275758753
94430.79628850533
94430.79788564627
94430.96088203076
94431.32423457436
94431.89236489855
94432.65916432206
94433.3288966468
94435.63992294662
94435.40563574737
94435.1229575483
94434.77321435315
94434.35719357412
94433.81688797398
94433.12312293226
94432.33523534313
94431.60148798989
94431.10629369444
94430.889758987
94430.81458077097
94430.74674657319
94430.69557671384
94430.81209386112
94431.1472400123
94431.68242727689
94432.43166506808
94433.24748198366
94435.74671775225
94435.46586917478
94435.15264576836
94434.80112228575
94434.39612724884
94433.84885332153
94433.10853212571
94432.24818470157
94431.44889856155
94430.94101415972
94430.7827423014
94430.76840102462
94430.70726465467
94430.57841922954
94430.63168908648
94430.93426987564
94431.42418966327
94432.11420795741
94433.1508211484
94435.87812536881
94435.53821027657
94435.1777644957
94434.83357677629
94434.44900685472
94433.89646684284
94433.09745644681
94432.14655082105
94431.27479007276
94430.76005915419
94430.67279699803
94430.73396734317
94430.69343410917
94430.45301604875
94430.4254641513
94430.68623455215
94431.12089069671
94431.71829643456
94432.9990322274
94436.01722556772
94435.57750893406
94435.18657220683
94434.86473615392
94434.51033100352
94433.96119898968
94433.09456810121
94432.03942982816
94431.09969950744
94430.5956374801
94430.51384424118
94430.7398039843
94430.71272773929
94430.31768204039
94430.19680444698
94430.38354420905
94430.75812743107
94431.26501511016
94432.6645821921
95449.84868560647
95451.12758013574
95450.82264678978
95450.29384702782
95449.55885152085
95448.67014328345
95447.82904304567
95447.29212042136
95447.35435868584
95448.356839028
95450.68215090164
95454.72681630019
95460.86885571845
95469.39108954939
95480.37659797189
95493.63825432163
95508.86025948117
95524.81855947011
95538.88113830122
95546.03294632061
95537.19014471141
95491.70575816507
95327.63826739728
95432.72846996791
95434.12481696194
95433.84597685994
95433.28377466918
95432.47710754286
95431.48796731545
95430.51458330889
95429.81612971435
95429.70319155
95430.55060967921
95432.80755699911
95436.94702255001
95443.47057493681
95452.77449825717
95465.0008248162
95479.68100971042
95495.06458229323
95512.43737760828
95528.35544173639
95536.71050753765
95528.33795096452
95493.74067403894
95422.98577279702
95328.03197943159
95331.52394729746
95329.66307181117
95326.13706282731
95321.39564563536
95315.66452504766
95309.39591183908
95303.32351827313
95298.45465635265
95296.03053968794
95297.9994291194
95305.81085319366
95321.50746119335
95346.65978934248
95381.45817461646
95422.47659255093
95470.85420208747
95496.58127921114
95521.1942341081
95539.87925026506
95543.14316288392
95527.28346079511
95488.14988532047
94697.17902270553
94701.37863819656
94699.20221313725
94695.26416604054
94690.08256317563
94683.98944528493
94677.50976049036
94671.37411849256
94666.44696697321
94663.66359321742
94664.54026703512
94670.33833472437
94683.19555479061
94706.26778191535
94743.78544517542
94798.89074378133
94887.73287568493
95055.51895682051
95284.22855839139
95510.2489568461
95563.3830413934
95566.88391284419
95552.24561823056
94560.40932013129
94560.41111878262
94560.40398589206
94560.39547066209
94560.3830088711
94560.3663750157
94560.34569190783
94560.32103674566
94560.29367240793
94560.26595625584
94560.23972575671
94560.21669281172
94560.19735944888
94560.1822310631
94560.17386868845
94560.17900228137
94560.17375530108
94567.97821331138
94610.30519877592
94723.30469177211
94932.31929416797
95221.90704227106
95482.70991185062
94560.2934212113
94560.28894134492
94560.28023485237
94560.27018701693
94560.25608243491
94560.23770144916
94560.21548086609
94560.19012302988
94560.16267094779
94560.13466925611
94560.10763735825
94560.08290293123
94560.06204049004
94560.04690776527
94560.04012507554
94560.04342782592
94560.04519004934
94560.00459733795
94559.94300229265
94559.89964051705
94559.91408892865
94588.65553735032
94700.73341465736
94560.21584890058
94560.20902095351
94560.20074236428
94560.19035196921
94560.17618117861
94560.15797713785
94560.13606676065
94560.11091451692
94560.08333491691
94560.05447296008
94560.02580577615
94559.99850189123
94559.97812384082
94559.96398212048
94559.93964286719
94559.92493831253
94559.91514597031
94559.87264228483
94559.85612213329
94559.83114850907
94559.7917185696
94559.65181634361
94559.60534046052
94560.16636096266
94560.16054182575
94560.15332346743
94560.14336270843
94560.12981545595
94560.11238553027
94560.09113589932
94560.06639851401
94560.03885494119
94560.00948695041
94559.97971553999
94559.95057409724
94559.97535058905
94559.97874943522
94559.92112356269
94559.85587153453
94559.84049076929
94559.82175729072
94559.79604520873
94559.76031948616
94559.69969908756
94559.57901062499
94559.55051469029
94560.13501993618
94560.13075667784
94560.1242727005
94560.11474084905
94560.10157797518
94560.08445009559
94560.06340989433
94560.03877624085
94560.01160175928
94559.98190186714
94559.95152385512
94559.92134915163
94559.96658612079
94559.95345122139
94559.90450290072
94559.83800567989
94559.82464527915
94559.79253499933
94559.76863952863
94559.90405771611
94559.85915818089
94559.63724027794
94559.53656949299
94560.11403441861
94560.11082602869
94560.10455927349
94560.09499969703
94560.08175490372
94560.06449311855
94560.043378102
94560.01883590063
94559.99394883777
94559.9641403187
94559.93272352889
94559.90293812066
94559.87657416878
94559.85115282951
94559.91878999255
94559.96039434439
94560.02771024029
94560.00090410656
94559.96947506997
94559.92846460927
94559.77935713729
94559.59508643557
94559.54535832799
94560.09844941637
94560.09551010201
94560.08920190285
94560.07945279962
94560.06599996502
94560.04858659412
94560.02752448985
94560.003950211
94559.97922311278
94559.95028144757
94559.91987754242
94559.891533482
94559.86645647074
94559.84444391541
94559.94571008829
94559.9694968609
94559.93292206888
94559.85571693268
94559.72405293214
94559.67101151535
94559.63280292897
94559.59549396702
94559.55894037883
94560.08568342382
94560.08267764401
94560.07628440751
94560.06639624556
94560.0528925144
94560.03560993346
94560.01509136563
94559.99273608178
94559.96784505478
94559.938531051
94559.91073919475
94559.88391388486
94559.8595534429
94559.83665312243
94559.80616105728
94559.82859656935
94559.74809684056
94559.71853636001
94559.69166431385
94559.66378928463
94559.63434753378
94559.60319005861
94559.5707858727
94560.07471784472
94560.07157153371
94560.06522511582
94560.05539374836
94560.04209128395
94560.0252619394
94560.00574893963
94559.9841224557
94559.95806413515
94559.93159881119
94559.90428184364
94559.87721264364
94559.85042406536
94559.82181420535
94559.79180550129
94559.76462916861
94559.73953673334
94559.71478069128
94559.69097553552
94559.66546795677
94559.63730518405
94559.60633283245
94559.57340830838
94560.06519467571
94560.06200244253
94560.05579878598
94560.04619887717
94560.03332495662
94560.01716601414
94559.99841823238
94559.97679047754
94559.95242787355
94559.92651944542
94559.89939594464
94559.87186015175
94559.8441487019
94559.81657037395
94559.79034793991
94559.76650431674
94559.74207426653
94559.7163193919
94559.69050308802
94559.66302224861
94559.63300187099
94559.59991615549
94559.56432566857
94560.05696179307
94560.05380400005
94560.04779152892
94560.03849933685
94560.02610324172
94560.01057916989
94559.99221660636
94559.97128483304
94559.94811749888
94559.92303926879
94559.89685837724
94559.87033258629
94559.84410960523
94559.81864432304
94559.79367550153
94559.76798626913
94559.74113358684
94559.71289213511
94559.68468060603
94559.65442978198
94559.62168012426
94559.58545436729
94559.54590979802
94560.04986239767
94560.0467671604
94560.04093708217
94560.03194315094
94560.01997511669
94560.00498950105
94559.98726118021
94559.96707606163
94559.9447970434
94559.92082449734
94559.89581991441
94559.87035849915
94559.84476059469
94559.81890184463
94559.79234090257
94559.76481231999
94559.73631657877
94559.70625459906
94559.67484389071
94559.64156726468
94559.60553676123
94559.56537612648
94559.52100008463
94560.04371616764
94560.04067902491
94560.03499956726
94560.02625663264
94560.01464796171
94560.00013137094
94559.98296429453
94559.96343798265
94559.94190167995
94559.91873865404
94559.89435614676
94559.86909075243
94559.84308310358
94559.81628334049
94559.78857212557
94559.75976984852
94559.72947195098
94559.69728540382
94559.6628255086
94559.62609139043
94559.58640266641
94559.54183560539
94559.49227995877
94560.03836905942
94560.03537806867
94560.02981323939
94560.02127168137
94560.00996046221
94559.99584019829
94559.97913516786
94559.96010672704
94559.93906479429
94559.91631323764
94559.89213500779
94559.86675102879
94559.84027113003
94559.81266789758
94559.78379162629
94559.75341043147
94559.72124437553
94559.68686041117
94559.64977548196
94559.60934219776
94559.56598203738
94559.51675640811
94559.46219699766
94560.03372202569
94560.03076694916
94560.02528876656
94560.01690669126
94560.00583575372
94559.99203803767
94559.97569928457
94559.95703471417
94559.93630501849
94559.91375764331
94559.8896007338
94559.8639777694
94559.83694044223
94559.80844240637
94559.77835308763
94559.74645884756
94559.71243535353
94559.67587219975
94559.63625560251
94559.59297329749
94559.5454421656
94559.49178358684
94559.4328424384
94560.02972773381
94560.02680337006
94560.02139397158
94560.01314036574
94560.00226167006
94559.98872224682
94559.97267371589
94559.95428431504
94559.93376140515
94559.91129977077
94559.8870518833
94559.86110783895
94559.83348453038
94559.80412040101
94559.77287067866
94559.73950152184
94559.70368689159
94559.66500590263
94559.62294956062
94559.5769114133
94559.52604120031
94559.4688434945
94559.40536176304
94560.02637333664
94560.02347828863
94560.01812849654
94560.00998371954
94559.999261946
94559.98593002939
94559.97011188547
94559.95193486585
94559.93155545038
94559.90911918493
94559.88473515492
94559.85845658356
94559.83027051893
94559.80009151578
94559.76775546126
94559.73301342754
94559.69552715911
94559.65487023746
94559.6105385405
94559.56192048085
94559.50807232322
94559.44778740132
94559.38082614965
94560.02366003873
94560.02079472538
94560.0155016112
94560.00745614235
94559.9968700365
94559.98371136915
94559.96808121588
94559.95007449582
94559.92980486192
94559.90737449079
94559.88285420775
94559.85626529073
94559.82756786575
94559.79665350851
94559.76333921446
94559.72736177889
94559.68837340212
94559.64594630233
94559.59958710648
94559.54867006869
94559.49222795606
94559.42930469062
94559.35957834411
94560.02158759907
94560.01875314151
94560.01351770399
94560.00556955818
94559.99511033278
94559.98210779575
94559.96664300263
94559.94878510378
94559.9286133291
94559.90619331795
94559.88156166999
94559.8547104459
94559.82557548834
94559.79402821742
94559.75986966744
94559.72282498375
94559.68253981524
94559.63858987275
94559.5904911633
94559.53760551912
94559.47899290339
94559.41389043782
94559.34206804003
94560.02014638187
94560.01734430551
94560.01216969431
94560.00432146857
94559.99398882176
94559.98113834222
94559.96583288675
94559.94812008875
94559.92805125615
94559.90566211699
94559.88096019921
94559.85391183288
94559.82443149292
94559.79237362117
94559.75752637094
94559.71960584841
94559.67825423513
94559.63305321102
94559.58352613186
94559.52902909688
94559.4686671285
94559.4018380342
94559.32846165502
94560.01931524317
94560.01654736478
94560.01143773553
94560.00369439178
94559.99349276476
94559.98079809731
94559.96565699132
94559.94809887413
94559.92815200491
94559.90582770316
94559.88110968507
94559.85394291718
94559.82422406418
94559.7917937157
94559.75642992914
94559.71784234217
94559.67567226407
94559.62950815771
94559.57887857922
94559.52313772266
94559.46143767453
94559.39330960788
94559.31880510529
94560.01906179683
94560.01632999971
94560.01128985597
94560.00365755068
94559.99359413199
94559.98106372944
94559.96609880627
94559.94871374147
94559.92891800229
94559.90670320237
94559.88203398832
94559.85483833158
94559.82499887398
94559.79234558038
94559.75664920743
94559.71761549827
94559.67488702021
94559.62805893578
94559.57666267372
94559.52005075062
94559.45741580469
94559.38839285818
94559.31312019327
94560.01934282872
94560.01664889279
94560.01168274025
94560.00416821294
94559.99425195664
94559.98189745723
94559.96712513629
94559.9499372756
94559.93032849065
94559.90827501657
94559.88372678611
94559.85659889401
94559.82676372935
94559.79404401494
94559.75820621592
94559.71895488126
94559.67593578978
94559.6287505699
94559.57693140731
94559.51982709236
94559.45665994148
94559.38714029263
94559.31145073861
94560.02010495901
94560.01745055326
94560.01256270522
94560.00517281124
94559.99541355463
94559.98324844167
94559.96868794621
94559.95172496195
94559.93234282013
94559.91050634516
94559.88615485032
94559.85919455101
94559.82949138533
94559.79686439017
94559.76107902253
94559.72184162548
94559.67880338708
94559.6315727497
94559.57968150449
94559.52247219936
94559.45918528331
94559.38958412025
94559.31387025607
94560.02128603481
94560.01867268643
94560.0138670676
94560.00660833639
94559.99701595609
94559.98505423217
94559.97072575704
94559.95401654007
94559.93490186885
94559.91333879248
94559.88925985493
94559.86256629035
94559.8331214385
94559.8007443932
94559.76520322001
94559.72620951208
94559.68342273268
94559.63645971019
94559.58485244802
94559.52793598048
94559.46495993488
94559.39572903668
94559.32046139722
94560.02281657823
94560.02024554338
94560.01552542581
94560.00840355834
94559.99898710677
94559.98724199957
94559.97316495338
94559.95673740514
94559.93792954189
94559.91669396008
94559.89296003508
94559.86662779037
94559.83756183374
94559.80558523235
94559.77047263717
94559.73194493625
94559.68967368404
94559.64328732755
94559.59232104912
94559.53610370244
94559.47389021613
94559.40552830575
94559.33127477215
94560.02462094607
94560.02209312077
94560.01746087312
94560.01048027309
94560.00124719065
94559.98972997894
94559.97592136492
94559.95980031921
94559.94133458588
94559.92047533176
94559.89715209893
94559.87126728702
94559.84269057347
94559.81125300801
94559.77674010881
94559.73888668675
94559.6973812418
94559.6518688841
94559.60189355734
94559.546782675
94559.48579913854
94559.41884947244
94559.34627462864
94560.02661889282
94560.02413469827
94560.01959152044
94560.01275482062
94560.0037101749
94559.99242908467
94559.97890201113
94559.96310733489
94559.94501271102
94559.92457057211
94559.90171364551
94559.87635002488
94559.84835807612
94559.81758079326
94559.78381899283
94559.74682646763
94559.7063144111
94559.66195127011
94559.61329776127
94559.55968815839
94559.50040287849
94559.43543645598
94559.36527923515
94560.02872710268
94560.02628638479
94560.02183207081
94560.01513971407
94560.00628553827
94559.99524478875
94559.9820071766
94559.96655210567
94559.94884915842
94559.92885435189
94559.90650622097
94559.88172148677
94559.85439048441
94559.82437186792
94559.79148608532
94559.75551109461
94559.71618704101
94559.67321347952
94559.62617768031
94559.57443207227
94559.51729032898
94559.45487483297
94559.38790425683
94560.03086090181
94560.02846285982
94560.02409561895
94560.01754553347
94560.00888030628
94559.99807934821
94559.98513288189
94559.97002264476
94559.95272177987
94559.93319176837
94559.91137909061
94559.88721151656
94559.86059411505
94559.83140442552
94559.79948642885
94559.76464711611
94559.7266617556
94559.68526904304
94559.64009326213
94559.59051810083
94559.53591073466
94559.47656746715
94559.41351909444
94560.03293600053
94560.03057918802
94560.02629557819
94560.01988300234
94560.01140132258
94560.00083431744
94559.98817368952
94559.97340447725
94559.95650458981
94559.93744235448
94559.91617376613
94559.89263942861
94559.86676120739
94559.83843799176
94559.80754038389
94559.77390843334
94559.73735788243
94559.697673809
94559.65452725193
94559.60734639839
94559.55557414623
94559.49972716143
94559.44122581698
94560.03487011213
94560.03255258074
94560.02834763103
94560.02206515468
94560.01375766435
94560.00341325648
94559.99102576356
94559.97658412473
94559.96007176163
94559.9414646855
94559.92072933551
94559.89782018543
94559.8726770847
94559.84522171458
94559.81535319671
94559.78294728367
94559.74786394097
94559.70993994184
94559.66890056274
94559.62422993117
94559.57546778035
94559.52339108767
94559.46986844731
94560.03658450076
94560.0343040907
94560.03017159551
94560.02400939722
94560.01586295041
94560.00572435801
94559.99358990634
94559.97945265655
94559.96330181265
94559.94512133382
94559.92488834127
94559.90257138027
94559.87812846027
94559.85150426427
94559.82262682301
94559.7914083801
94559.75775455587
94559.72155614392
94559.68259643894
94559.64042324797
94559.59468988274
94559.54645999413
94559.49807815308
94560.03800668554
94560.03576125031
94560.03169390807
94560.02563984932
94560.0176376372
94560.00768284489
94559.99577421347
94559.98190876158
94559.96608126142
94559.94828329473
94559.92850218412
94559.90671986718
94559.88291159918
94559.85704391215
94559.82907241501
94559.79894444246
94559.76660986344
94559.7320120385
94559.69499128016
94559.65516160165
94559.61229927051
94559.56776083099
94559.52435381814
94560.03907818528
94560.0368656444
94560.03285470537
94560.02689379337
94560.01901487177
94560.00921632878
94559.99749908004
94559.98386359222
94559.96830952847
94559.95083519179
94559.93143691625
94559.91010847576
94559.88684036303
94559.86161842226
94559.83442273595
94559.80523202939
94559.77403595437
94559.74082482286
94559.70548961202
94559.66770698335
94559.62737595293
94559.58612632105
94559.54716663563
94560.03977117373
94560.0375899785
94560.03362561835
94560.02773992886
94560.01995897957
94560.01028338174
94559.99871585415
94559.98525961398
94559.96991821597
94559.95269531725
94559.93359445145
94559.91261887204
94559.88977128628
94559.86505302619
94559.83846388466
94559.81000809044
94559.77970763712
94559.74759003634
94559.71358529582
94559.67742326013
94559.63911543836
94559.60051438652
94559.56511269358
94560.04008905285
94560.03793564571
94560.03400901966
94560.02817998815
94560.02046981052
94560.0108809645
94559.99941775517
94559.9860855013
94559.97089051208
94559.95384008548
94559.93494256272
94559.91420749918
94559.89164574549
94559.86726902926
94559.8410905425
94559.81313214455
94559.78343814379
94559.75206038619
94559.71895316157
94559.68388729074
94559.646971389
94559.61020552042
94559.57720425571
94560.03980825559
94560.03768585043
94560.03378853566
94560.02799352542
94560.0203215823
94560.01077677729
94559.99936418362
94559.98608987316
94559.97096113313
94559.95398663069
94559.93517662399
94559.91454330762
94559.8921010717
94559.86786628304
94559.84185826113
94559.8141071156
94559.7846674395
94559.75360095463
94559.72087024011
94559.68626828754
94559.64996962323
94559.61404083234
94559.5819591716
95030.40076168432
95021.96444775035
95029.41409779024
94974.74995661521
95344.87480039947
95302.2374068068
95252.00860077176
95180.19537569783
95428.48477641577
95386.42093352809
95347.80705367398
95308.95184196802
95520.00670971662
95496.95733337483
95476.87601051226
95457.56789586926
95616.95688019291
95621.96616242309
95614.75758499102
95606.35325523147
94830.90275919078
94939.18218314584
95034.31830550169
95159.747389613
94559.55816439887
94559.5246765069
94559.50915477805
94565.99329322246
94559.51915727824
94559.48709522346
94559.45165926433
94559.41943237089
94559.49827862877
94559.46898517624
94559.4386996673
94559.40740894375
94559.50762621892
94559.48115862372
94559.45697148047
94559.43375134349
94559.52635581695
94559.50321661483
94559.48283812711
94559.46351829555
94559.53932163633
94559.51713079469
94559.49758956232
94559.47858194984
94559.5413428973
94559.51886738384
94559.49833441243
94559.47736251554
94559.53042842359
94559.50675598478
94559.48399706186
94559.45985817697
94559.5093812253
94559.4838375457
94559.45800782451
94559.43007197908
94559.4812939603
94559.45330285301
94559.42392068029
94559.39203975211
94559.44906470293
94559.4182759929
94559.38537471592
94559.34985356501
94559.41525789224
94559.38168560802
94559.34575517774
94559.30717615604
94559.38200579883
94559.34601361836
94559.30772698585
94559.26676423213
94559.3509742567
94559.31321354871
94559.27315730148
94559.23044746021
94559.32380872795
94559.28467755138
94559.24325822521
94559.19935016379
94559.30084676898
94559.26075469007
94559.21846353079
94559.17370294331
94559.2821848185
94559.24145526443
94559.19861173652
94559.15327788291
94559.26777744204
94559.22660379737
94559.18337972424
94559.1376621716
94559.25753659062
94559.21601674099
94559.17247968132
94559.12646794946
94559.25141836409
94559.2096020254
94559.16576306288
94559.1194648886
94559.24946585859
94559.20740357519
94559.16327037463
94559.11665913295
94559.25180638825
94559.20959089421
94559.16521475573
94559.11828300986
94559.25861756687
94559.21641585256
94559.17193015566
94559.1247391659
94559.27006891166
94559.2281417835
94559.18378686841
94559.13650167195
94559.28624770512
94559.24495491043
94559.20108645644
94559.1539917945
94559.30707741639
94559.26686652044
94559.2239453271
94559.17744045785
94559.33223832063
94559.29361637736
94559.25217826992
94559.20675030994
94559.36110265956
94559.32459152301
94559.28519861121
94559.24137654516
94559.39269751294
94559.35877626811
94559.32195329218
94559.28024676605
94559.42570623575
94559.39474674298
94559.3609095726
94559.32173975768
94559.45851743227
94559.43072184936
94559.40010778044
94559.3637391563
94559.48932265336
94559.4646717054
94559.43728050392
94559.40376215389
94559.51624171289
94559.49446006882
94559.47001778698
94559.43915236338
94559.53751048807
94559.51808097074
94559.49606920939
94559.46744232471
94559.55200030733
94559.53423692989
94559.5139173669
94559.48687820892
94559.55744071864
94559.54022677091
94559.52044644079
94559.49410846924
94445.7595178319
94435.69540472519
94435.25617518918
94434.99769835739
94434.6677200351
94434.08995496292
94433.14188556622
94431.99288210692
94430.94813639201
94430.59224974395
94430.66780541975
94430.9016287628
94430.79074430783
94430.22075894958
94429.83535295365
94429.8698489097
94430.15282941356
94430.54600382442
94431.97050185238
94854.07027778326
94459.78411270087
94456.51273137871
94545.51256733231
94543.98703819276
94446.54870207532
94433.06800811713
94432.33560420013
94431.19459219731
94576.396612351
94746.85519785501
94744.92101266955
94603.74939876005
94433.40131864713
94431.05939085694
94434.0585452668
94429.9184576743
94430.05707554267
94431.70997058562
95238.35734168722
94962.43415998413
94979.82604850488
95118.5738475165
95122.50683630782
94951.65276240595
94738.16801821456
94740.37310239088
94911.76630237568
95148.83117019878
95208.15762254089
95208.6906635443
95147.24661882111
95043.19105990947
95033.39357252083
94882.5560640171
94570.71040631874
94439.5119325367
94434.27126572172
95422.38805557525
95383.46804062916
95377.61067260178
95378.90203357354
95374.29831953163
95356.42239004701
95333.26417309356
95335.05466668206
95355.80731143255
95378.0873166722
95394.12565951105
95398.81606048011
95393.74214345049
95387.51695868329
95401.22953889563
95430.37249998968
95379.5356097734
94941.17260827172
94642.39880443126
95593.24485256767
95579.57987956192
95572.05675043988
95568.65407338753
95565.91325373435
95561.37030146232
95557.53920406602
95561.08639314664
95570.65683463962
95580.40503657189
95589.04846515307
95593.98282504466
95595.16309647005
95604.35273821124
95637.9178157619
95701.02510518632
95785.46256010946
95886.56938196656
95841.73520261839
95405.14508817399
95533.4378065967
95586.86095518373
95595.09285536749
95588.0314855051
95563.68418535977
95524.56600894898
95477.53848338249
95419.21997765085
95391.9218947599
95390.30594394811
95425.26135924405
95598.37727987152
95784.97892309437
95838.14449074055
95940.21001885331
96080.99204357724
96282.87432292724
96416.94753800098
94608.4309994483
94662.83161288449
94709.56395505008
94720.26637570218
94713.50493942197
94691.87646279411
94663.01513562162
94636.59099077547
94612.56542655222
94606.20214349909
94608.50623507121
94624.33053850834
94701.33732525342
95032.62662371853
95770.11497079532
96100.37313403992
96262.87663534307
96437.16253321586
96343.19884225035
94559.35294091275
94559.35130266633
94559.31791770677
94559.29714877575
94559.31646066526
94559.39952412315
94559.55741111712
94559.80320955809
94560.14084254294
94560.53759838582
94560.98720753785
94561.44484695655
94561.54924016088
94563.28709770516
95013.71234173287
95999.36150501626
96351.78315219606
96482.51034879826
96125.77445598951
94559.3593129138
94559.33667710076
94559.31624190873
94559.30647201877