/*--------------------------------*- C++ -*----------------------------------*\
| =========                 |                                                 |
| \\      /  F ield         | OpenFOAM: The Open Source CFD Toolbox           |
|  \\    /   O peration     | Version:  2206                                  |
|   \\  /    A nd           | Website:  www.openfoam.com                      |
|    \\/     M anipulation  |                                                 |
\*---------------------------------------------------------------------------*/
FoamFile
{
    version     2.0;
    format      ascii;
    arch        "LSB;label=32;scalar=64";
    class       surfaceScalarField;
    location    "0.4";
    object      phi;
}
// * * * * * * * * * * * * * * * * * * * * * * * * * * * * * * * * * * * * * //

dimensions      [0 3 -1 0 0 0 0];

oriented        oriented;

internalField   nonuniform List<scalar> 
4432
(
3.530560756311639e-06
-3.530560894463653e-06
7.062788271813503e-06
-3.532227704295891e-06
1.055045611075583e-05
-3.487668034761788e-06
1.399444853820653e-05
-3.443992617698329e-06
1.73645832193725e-05
-3.370134860897129e-06
2.062047757204839e-05
-3.255894516391219e-06
2.372604173376638e-05
-3.105564303814297e-06
2.664422227803386e-05
-2.918180660070139e-06
2.933267911170151e-05
-2.68845691996735e-06
3.174275496312481e-05
-2.410075906278047e-06
3.38190850957875e-05
-2.076330153954909e-06
3.549898830129465e-05
-1.679903188096385e-06
3.671151088759009e-05
-1.212522518493928e-06
3.737557761489663e-05
-6.640665885004264e-07
3.740911020969509e-05
-3.353235946104092e-08
3.669974875705502e-05
7.093618082557136e-07
3.512662119658709e-05
1.573128058729763e-06
3.253809574653264e-05
2.588526102903842e-06
2.875969843521533e-05
3.778398136107486e-06
2.361373639581472e-05
5.145963143240991e-06
1.701865885035023e-05
6.595079539508129e-06
8.88376712087312e-06
8.134898689196857e-06
8.883783272878763e-06
3.577198872331512e-06
-7.10775978668188e-06
7.143007665038806e-06
-7.098036557298268e-06
1.068037306763467e-05
-7.025033500940077e-06
1.417135474418321e-05
-6.93497435093125e-06
1.75829522677603e-05
-6.781732431513324e-06
2.088109437455067e-05
-6.554036657636501e-06
2.403150921434813e-05
-6.255979162633822e-06
2.699721164264467e-05
-5.883883090242086e-06
2.97363598491758e-05
-5.427605111072535e-06
3.220118926761842e-05
-4.874905292781511e-06
3.433749011491048e-05
-4.212630952401953e-06
3.608424797662119e-05
-3.426660978802669e-06
3.737339182242091e-05
-2.501666256879482e-06
3.812981466178237e-05
-1.420489258360204e-06
3.824894604858548e-05
-1.526634774900743e-07
3.764139979539523e-05
1.316908467085511e-06
3.617001676844162e-05
3.044511644242625e-06
3.367671424803434e-05
5.081829337861031e-06
2.997023341470217e-05
7.484879847562637e-06
2.482742203891305e-05
1.02887756586667e-05
1.8054034905759e-05
1.336846868300398e-05
9.55081807483391e-06
1.663812267291707e-05
1.843462031632859e-05
3.57082183025005e-06
-1.067858111503964e-05
7.148064966219482e-06
-1.067527921422647e-05
1.070548515754848e-05
-1.058245320764475e-05
1.421283235193257e-05
-1.044232105315575e-05
1.763775755586976e-05
-1.020665714122429e-05
2.095004088025085e-05
-9.866319491394214e-06
2.411697210507931e-05
-9.422909907012367e-06
2.710183800559027e-05
-8.868748529230185e-06
2.986301954469766e-05
-8.188786218737563e-06
3.235301898733536e-05
-7.364904346233713e-06
3.451781659500088e-05
-6.377428222682479e-06
3.629652324067033e-05
-5.205367339820698e-06
3.762095249367029e-05
-3.826095263502831e-06
3.841385721906624e-05
-2.213393741314538e-06
3.859522475815289e-05
-3.340307027956638e-07
3.80610593610971e-05
1.851074353832958e-06
3.669058022867331e-05
4.414991444618686e-06
3.433398623229928e-05
7.438424160076258e-06
3.07917867409915e-05
1.102708030605029e-05
2.580528817253337e-05
1.52752754110669e-05
1.907399088102688e-05
2.009976797349706e-05
1.034723734189843e-05
2.536488353601024e-05
2.878187703089322e-05
3.582508096278156e-06
-1.426108737008846e-05
7.179003560841519e-06
-1.427177282827261e-05
1.076074223916256e-05
-1.416419001366095e-05
1.428967911033099e-05
-1.397125604657782e-05
1.773528446804727e-05
-1.365226063842344e-05
2.107006647943282e-05
-1.320109968310827e-05
2.426274374405357e-05
-1.261558542004647e-05
2.727725441498702e-05
-1.188325754960425e-05
3.007239954587693e-05
-1.098392983896578e-05
3.260098534433853e-05
-9.893488816107915e-06
3.480918398342353e-05
-8.585625754077119e-06
3.663634155521468e-05
-7.032524049081347e-06
3.801506407858103e-05
-5.204817165416265e-06
3.887150605889191e-05
-3.069835297311411e-06
3.912289362813402e-05
-5.854178732836797e-07
3.867159830559495e-05
2.302370364696246e-06
3.740931349995825e-05
5.677277213819697e-06
3.519062960118257e-05
9.657109217188462e-06
3.182161546011512e-05
1.439609572001461e-05
2.701772286064521e-05
2.007916941510643e-05
2.03726056016127e-05
2.674488733706584e-05
1.140418639197147e-05
3.433331036368162e-05
4.018606773594486e-05
3.606292248561685e-06
-1.786737525603744e-05
7.228921444128615e-06
-1.789439760720539e-05
1.084040886144797e-05
-1.777567297158562e-05
1.439731241807453e-05
-1.752815514603799e-05
1.787172537355615e-05
-1.712666918578844e-05
2.123840068227482e-05
-1.65677706831315e-05
2.446741633118828e-05
-1.584459692023642e-05
2.752361087989071e-05
-1.493944818432233e-05
3.036636701474008e-05
-1.382668238450682e-05
3.294880528976213e-05
-1.247592392773044e-05
3.521718140362698e-05
-1.085399923161875e-05
3.711082930979387e-05
-8.92616992688897e-06
3.856258444526352e-05
-6.656570914361225e-06
3.949912351364386e-05
-4.006373582573628e-06
3.984079471792182e-05
-9.270885547101291e-07
3.950126506779974e-05
2.641901087641792e-06
3.837507065699992e-05
6.803473260192488e-06
3.632993354762013e-05
1.170224832607316e-05
3.317620471740738e-05
1.754982668742643e-05
2.860830885850311e-05
2.464706741507471e-05
2.210386151800843e-05
3.324933728744466e-05
1.28733722760773e-05
4.356380787178704e-05
5.305942985986509e-05
3.641570042847409e-06
-2.15089372316026e-05
7.29640990756816e-06
-2.154922931356309e-05
1.094259075953417e-05
-2.142184560605331e-05
1.453375581200311e-05
-2.111931199395904e-05
1.804490118578469e-05
-2.063780643773468e-05
2.145287726726784e-05
-1.997573880530609e-05
2.472919238176465e-05
-1.912090433992438e-05
2.783981486530887e-05
-1.805006336961e-05
3.07449076784057e-05
-1.673176846110218e-05
3.339800152041879e-05
-1.512901178848046e-05
3.574541069741248e-05
-1.320140338702533e-05
3.772630022463446e-05
-1.090705557553571e-05
3.927356899206931e-05
-8.20383706281962e-06
4.031570524390345e-05
-5.048508482484741e-06
4.077523536467972e-05
-1.386618050462731e-06
4.05678784232361e-05
2.849259648176038e-06
3.960554439877724e-05
7.765810116535306e-06
3.776899708322375e-05
1.353879933778147e-05
3.488706706499124e-05
2.043176078425482e-05
3.064815503724641e-05
2.888598344303542e-05
2.441444631171586e-05
3.948305010805932e-05
1.500428363047139e-05
5.297398032560463e-05
6.806370268649021e-05
3.690632310433412e-06
-2.519955712220101e-05
7.38252461873189e-06
-2.524110910586413e-05
1.106730301393778e-05
-2.51066114173058e-05
1.469788810110921e-05
-2.474988451523129e-05
1.82522193585646e-05
-2.419212522871813e-05
2.170941492928455e-05
-2.343292211243064e-05
2.504262397429221e-05
-2.245410146744032e-05
2.821920199873521e-05
-2.122663002070154e-05
3.120035301946942e-05
-1.971290891075844e-05
3.39402205628347e-05
-1.786886987462773e-05
3.638524170990113e-05
-1.564641653199374e-05
3.847416890253349e-05
-1.299597654929981e-05
4.013900743539663e-05
-9.868671407773062e-06
4.130722851143433e-05
-6.216727514121435e-06
4.190854294226663e-05
-1.987931971879336e-06
4.186639297563727e-05
2.891411632504129e-06
4.109624101897488e-05
8.535966436834892e-06
3.950980091044605e-05
1.51252457709142e-05
3.696778501391767e-05
2.297378421229633e-05
3.319011710555706e-05
3.266365909956991e-05
2.746596406546598e-05
4.520721065599265e-05
1.821313380205712e-05
6.222682370385003e-05
8.627682558556916e-05
3.757655686454284e-06
-2.895718038545621e-05
7.485621075852441e-06
-2.896904181897369e-05
1.121474195251049e-05
-2.883569936750381e-05
1.488916805198536e-05
-2.842427767955172e-05
1.849200702667352e-05
-2.77949314585082e-05
2.200525425799386e-05
-2.694613702352697e-05
2.540387560341371e-05
-2.585269125033963e-05
2.865696156710546e-05
-2.447968565277995e-05
3.172722269218445e-05
-2.278314155374239e-05
3.456996504234488e-05
-2.071158634805932e-05
3.713234937125734e-05
-1.820877844518659e-05
3.935323172725778e-05
-1.521684084085899e-05
4.116373432679508e-05
-1.167916109576397e-05
4.248926235474298e-05
-7.542248396381929e-06
4.325634192637341e-05
-2.755010118566601e-06
4.33945570275976e-05
2.753196869031203e-06
4.284031003535452e-05
9.090215664761353e-06
4.153587790929751e-05
1.642968370687817e-05
3.940187050576019e-05
2.510780246683885e-05
3.625226473359171e-05
3.581328115536227e-05
3.140402947053423e-05
5.005546696539132e-05
2.317167591767553e-05
7.04592076807713e-05
0.0001094484995925225
-8.333361514134193e-06
9.670101160771548e-06
-2.39295148656301e-05
1.693266600710651e-05
-4.025537856071443e-05
1.766197934221909e-05
-5.722252088394331e-05
1.830271801530989e-05
-7.504019285720948e-05
1.915256056025491e-05
-9.430887709313956e-05
2.060268861872101e-05
-0.00011467488220164
2.169895213854725e-05
-0.0001342300004181997
2.088698607936582e-05
-0.0001498608641080753
1.69619126661116e-05
-0.0001587241255695642
1.019405659573167e-05
-0.0001604669329489647
3.073817034753633e-06
-0.0001572336655692184
-1.902632976991682e-06
-0.0001512956361943384
-4.608917040360319e-06
-0.0001426706408566949
-7.297262530883951e-06
-0.0001299676700037906
-1.13768723158713e-05
-0.0001126623418018346
-1.598130197260928e-05
-8.987880917164901e-05
-2.14620139569653e-05
-5.562537200257871e-05
-3.293765029917506e-05
-5.43289434637984e-05
-1.041922563975582e-05
2.142608846052093e-05
-2.745110903528206e-05
3.530050367509483e-05
-4.468384894329613e-05
3.622933411996372e-05
-6.199012343396258e-05
3.69418556371545e-05
-7.993019640819451e-05
3.842340688121304e-05
-9.93295928847734e-05
4.132991783182051e-05
-0.0001198721778867399
4.356520046788255e-05
-0.0001395495671684061
4.188315066001715e-05
-0.0001551978894306574
3.392583103136179e-05
-0.0001637896716587682
2.010399037978191e-05
-0.0001647680058543687
5.378436026086851e-06
-0.0001605805217286586
-4.762152676575269e-06
-0.0001540579535081662
-9.811019992164435e-06
-0.0001452333274161305
-1.48049179182242e-05
-0.0001323437301822985
-2.295510860287324e-05
-0.0001148429026868408
-3.218092364743179e-05
-9.226726251875652e-05
-4.274809014902429e-05
-5.870749419221673e-05
-6.523516038170371e-05
-0.000111883202996056
-1.043845930822417e-05
3.319976854297307e-05
-2.841405039906374e-05
5.460887754626959e-05
-4.598580477626677e-05
5.512911594130162e-05
-6.304389392498247e-05
5.532257141812191e-05
-8.059838711270367e-05
5.7293448247343e-05
-9.991421900628497e-05
6.19495084588057e-05
-0.0001207965952839173
6.573319388292313e-05
-0.000140984173783215
6.333472023528346e-05
-0.0001570945991099115
5.128866068309665e-05
-0.0001657141531922319
2.999602876018649e-05
-0.0001658711502541573
6.855460166614518e-06
-0.0001606401372136852
-8.668013468448513e-06
-0.0001539484702511458
-1.520919662584022e-05
-0.0001458320519950669
-2.162952503631388e-05
-0.0001336188748274407
-3.389100057120085e-05
-0.0001166953869742486
-4.786984172428343e-05
-9.544239996621562e-05
-6.281637207050906e-05
-6.395951477899917e-05
-9.561474622340593e-05
-0.0001750273558573599
-9.098427091121285e-06
4.363736670144985e-05
-2.80865630408751e-05
7.493335765821031e-05
-4.592487879404713e-05
7.428901031367607e-05
-6.242471279407742e-05
7.312290730529023e-05
-7.931963268846883e-05
7.546608408759447e-05
-9.853295721215088e-05
8.240662728964882e-05
-0.0001200779148611401
8.846500153533905e-05
-0.0001411905730138657
8.556899053948743e-05
-0.0001580206803487092
6.921569251174267e-05
-0.0001666999730633507
3.98577003597118e-05
-0.0001654529732293351
6.958014439006888e-06
-0.0001585600671955768
-1.42256231541811e-05
-0.0001518183595731287
-2.071256790530595e-05
-0.0001451914152975935
-2.69875244527746e-05
-0.0001343474279441836
-4.348670857283379e-05
-0.0001185069055921301
-6.258740509785479e-05
-9.90379427209001e-05
-8.131580897083119e-05
-7.021705446119309e-05
-0.0001236214504846983
-0.0002447772292764441
-6.471621431691963e-06
5.14521588987905e-05
-2.659838838840744e-05
9.633376944440819e-05
-4.466574496555711e-05
9.358490715161026e-05
-6.009638153915623e-05
8.979911565030868e-05
-7.581502912204006e-05
9.241645799951546e-05
-9.459851647416611e-05
0.0001023336927233177
-0.0001167491443585038
0.0001116317359046322
-0.0001386455556720275
0.0001083477586095518
-0.000155620427980801
8.705500613016953e-05
-0.0001638340634940546
4.917743254701124e-05
-0.0001602107769279164
4.856240012741347e-06
-0.00015134557869605
-2.172679573675502e-05
-0.000145136955319016
-2.576653173601082e-05
-0.0001412731113753089
-2.956467696114865e-05
-0.0001327129188527828
-5.076520417645547e-05
-0.0001185488902892909
-7.573637859984963e-05
-0.0001008863647835147
-9.830636380494495e-05
-7.482444166574773e-05
-0.0001492059387628815
-0.000318998976434767
-2.514831066347807e-06
5.519000746607677e-05
-2.375236590434847e-05
0.0001188685267861344
-4.193866435656116e-05
0.0001131786837711776
-5.533580091790781e-05
0.0001044008939757237
-6.892255537427116e-05
0.0001070643185585909
-8.641932689859962e-05
0.0001208558162779846
-0.0001084696462644309
0.0001345099597660085
-0.0001301673271299558
0.0001306834094543039
-0.0001454146108367347
0.0001029959512515173
-0.0001518531366270302
5.67761937256789e-05
-0.0001451669144322681
1.003227935855519e-07
-0.0001353895633432478
-3.016649774515204e-05
-0.0001309584046095267
-2.913719506539864e-05
-0.00013171376568327
-2.74459383649458e-05
-0.0001263527573447823
-5.471231750831189e-05
-0.0001145092478193388
-8.660237981011567e-05
-9.837210734725812e-05
-0.0001140460053418555
-7.571500550240626e-05
-0.0001716278749457411
-0.0003932324425666135
4.514027165339749e-06
5.258149291269925e-05
-1.889946868110009e-05
0.0001445405499342071
-3.720942992883039e-05
0.0001331475749775285
-4.703023663994956e-05
0.0001159827053089409
-5.696382072527343e-05
0.0001187956597264104
-7.160666081620554e-05
0.0001366856944778523
-9.192968917450397e-05
0.0001556897245257188
-0.0001113021839276016
0.0001507422353604323
-0.0001207867364923107
0.0001133720040074566
-0.0001221372039798037
5.956223774815787e-05
-0.0001139080599075516
-5.773833699297227e-06
-0.0001071976730227623
-3.573325213700194e-05
-0.000106259433511156
-2.910546823339432e-05
-0.0001140533276038186
-1.817794582954385e-05
-0.0001123361581824942
-5.480367442731597e-05
-0.0001039042588639556
-9.399439590475953e-05
-8.951999036260897e-05
-0.0001281718202028076
-7.081024762408475e-05
-0.0001902011127365337
-0.0004613930798219922
2.030109087525707e-05
3.047834235392539e-05
-9.386878163004174e-06
0.0001702257966900594
-2.79406090585005e-05
0.000148204575980121
-3.287606242622711e-05
0.0001182527018711992
-3.791900906714167e-05
0.0001218850860169038
-4.775144183088353e-05
0.0001462895474938516
-6.449066708798994e-05
0.0001729010752354376
-7.960592944313892e-05
0.000166590421387955
-7.777657880914004e-05
0.000112692194654079
-6.395635926815778e-05
4.786679342898529e-05
-5.997572014754555e-05
-7.055522270767174e-06
-6.352301794110719e-05
-3.134295257607379e-05
-6.889737519022729e-05
-2.290377329876124e-05
-8.589825895664744e-05
3.764737530606193e-07
-8.690606468551843e-05
-5.225904027717065e-05
-8.395287222485769e-05
-9.633664374068025e-05
-7.327464942019349e-05
-0.0001392417350210874
-5.913175337126654e-05
-0.0002048674687483522
-0.0005191032321854605
8.094788499488088e-06
-3.705189526624963e-05
1.618437546151718e-05
-3.705855451989702e-05
2.418788537805325e-05
-3.683913441023327e-05
3.210258135913876e-05
-3.633889870716258e-05
3.988471721182174e-05
-3.557699267652397e-05
4.749279094650766e-05
-3.455413696543878e-05
5.488009244911905e-05
-3.323992056511259e-05
6.198673997771556e-05
-3.158626371416732e-05
6.873814257214439e-05
-2.953447890352267e-05
7.504379090204669e-05
-2.701717543837632e-05
8.079630033527538e-05
-2.396123659976073e-05
8.587214996043603e-05
-2.02926491410988e-05
9.013484102185303e-05
-1.594182242589985e-05
9.34434827507975e-05
-1.085087292415366e-05
9.566692166132822e-05
-4.978445148919074e-06
9.674723701248222e-05
1.672888183248851e-06
9.668730256439574e-05
9.150174234807895e-06
9.560072310650331e-05
1.751630301881225e-05
9.375943180273069e-05
2.694914769119142e-05
9.171116427303986e-05
3.786161480144335e-05
9.086901503396458e-05
5.089769332823336e-05
9.586527715804783e-05
6.546304990133836e-05
7.972657877405267e-05
0.0001255872667093076
8.306613296360946e-06
-4.535844128428739e-05
1.65422675160795e-05
-4.52941404184207e-05
2.473357567703886e-05
-4.503037331335567e-05
3.283825602095108e-05
-4.444350945555454e-05
4.08313035877408e-05
-4.356997041341784e-05
4.868749321823386e-05
-4.241025703261484e-05
5.636939600329168e-05
-4.092175488974454e-05
6.382534130603883e-05
-3.904214277098028e-05
7.098865015001211e-05
-3.669772563568525e-05
7.777457516571867e-05
-3.380304456786499e-05
8.407898033998744e-05
-3.026559415876289e-05
8.978111112891671e-05
-2.599474249704307e-05
9.474969582674773e-05
-2.091038089462696e-05
9.886668521190849e-05
-1.496784646682772e-05
0.0001020607026602513
-8.172458314328686e-06
0.000104429718573894
-6.961400372587477e-07
0.0001052177134405079
8.362185594799216e-06
0.0001050293232856302
1.770471730174966e-05
0.000104562970916279
2.741554374746396e-05
0.0001048824641121684
3.754218797533188e-05
0.0001071873246494488
4.859292538569878e-05
0.0001120288859482739
6.062161732019204e-05
7.421305351463183e-05
0.0001175425635267241
8.555597790783724e-06
-5.392953104144201e-05
1.685854755400406e-05
-5.36123592233339e-05
2.516686959398723e-05
-5.335413033663491e-05
3.339553710310018e-05
-5.268784680600858e-05
4.153045603088727e-05
-5.172087049938476e-05
4.95665414794254e-05
-5.046271343382203e-05
5.747851072150907e-05
-4.885052248812139e-05
6.522580088629064e-05
-4.680662142387946e-05
7.275535427599319e-05
-4.424471528352981e-05
7.999492879963564e-05
-4.106001568120426e-05
8.68497225442306e-05
-3.713734072161262e-05
9.31996270940514e-05
-3.236032773948477e-05
9.888077400888945e-05
-2.660516474264798e-05
0.0001036952547071827
-1.979282624930094e-05
0.0001074801910764092
-1.196370708491621e-05
0.0001103032665316564
-3.521395544356433e-06
0.000111838062042248
6.82814782027773e-06
0.0001120365552776094
1.750621819442086e-05
0.0001123745863112669
2.707751501860242e-05
0.0001137518357566056
3.616496542815618e-05
0.0001160759531597348
4.626888308678443e-05
0.0001197995557533776
5.689815287577042e-05
6.728679622895822e-05
0.0001267260511255575
8.796582501955567e-06
-6.471673519124624e-05
1.698575000881915e-05
-6.380080572072379e-05
2.544510033317794e-05
-6.38863383595565e-05
3.376261557730666e-05
-6.311987717259253e-05
4.199147723076022e-05
-6.210929245828488e-05
5.015023045058536e-05
-6.082208902153221e-05
5.821313136526917e-05
-5.913315296539779e-05
6.613666690787496e-05
-5.693588113822416e-05
7.386911156560675e-05
-5.411283645026304e-05
8.133852587506384e-05
-5.051675711531946e-05
8.847634374334542e-05
-4.604204004918493e-05
9.524212933788007e-05
-4.061920137725275e-05
0.0001015896931363917
-3.413572987617146e-05
0.0001075392638439652
-2.6587507752652e-05
0.000113157703751186
-1.808615665081933e-05
0.0001176861113424139
-8.260902904544051e-06
0.0001193663448631288
5.119627882954874e-06
0.0001193840794863746
1.744491776702376e-05
0.0001199078309378964
2.65339733724279e-05
0.0001212118657557338
3.486245871260689e-05
0.00012302581131798
4.445474138401812e-05
0.0001267543574112374
5.316946645694092e-05
6.104502504390907e-05
0.0001329961893265623
6.284526688355108e-06
-7.03731264644076e-05
1.33797772451028e-05
-7.019136552441585e-05
2.089743045820889e-05
-7.071643459006861e-05
2.873478985380657e-05
-7.029675622123666e-05
3.680893068314637e-05
-6.956738975003202e-05
4.520598966660213e-05
-6.865639064339437e-05
5.3791455404004e-05
-6.721403193169528e-05
6.218047807801791e-05
-6.490821151211476e-05
6.984532263003896e-05
-6.145697302351986e-05
7.603565096806999e-05
-5.644381546003878e-05
8.033096882618043e-05
-5.009489766725171e-05
8.280426837730211e-05
-4.285931578292617e-05
8.390354421892845e-05
-3.503588926695207e-05
8.382535316244541e-05
-2.638148403553989e-05
8.236892489875289e-05
-1.659790908543971e-05
7.896890084664163e-05
-4.840789256328175e-06
7.756972015831895e-05
6.359269453873838e-06
9.715889501204117e-05
-2.947681847369809e-06
0.0001108106839092965
1.313641002100322e-05
0.0001167187256711181
2.96413290319813e-05
0.0001219566295333227
3.985948680611945e-05
0.0001280205577277951
4.711330352342197e-05
5.396595594876144e-05
0.0001351181296545189
3.324618273067715e-06
-7.459471879709343e-05
8.896693708145587e-06
-7.668779844970827e-05
1.476214961694794e-05
-7.756289782255971e-05
2.108871058450699e-05
-7.76122689519604e-05
2.802948923374627e-05
-7.751521457673947e-05
3.546413907179879e-05
-7.713150471932835e-05
4.315424000208528e-05
-7.597933813853762e-05
5.077335624119365e-05
-7.361352607684206e-05
5.796568885000267e-05
-6.971688467794757e-05
6.461872242785686e-05
-6.41006615423935e-05
7.056114073005094e-05
-5.693699423799856e-05
7.570323762081826e-05
-4.878788081910483e-05
7.980251690408109e-05
-3.982483288347923e-05
8.216057861444892e-05
-2.933767116754216e-05
8.234309152196546e-05
-1.726130309554493e-05
8.168294328334348e-05
-4.389363288579829e-06
8.086544521515151e-05
7.633216458206966e-06
7.847928346309308e-05
-6.769436032414109e-07
7.967403955547676e-05
1.188376265753792e-05
8.329689513551364e-05
2.557784372992187e-05
7.975898391938887e-05
4.062066068452731e-05
0.0001141631566817671
1.167889289471698e-05
3.955370353170848e-05
0.0001301524461390469
2.685584924864049e-06
-7.797428687111701e-05
7.561859893259851e-06
-8.232861156195005e-05
1.282985052069203e-05
-8.361777166240051e-05
1.869180400624207e-05
-8.427264251852471e-05
2.522334144393814e-05
-8.485722202754747e-05
3.228925799782351e-05
-8.502230846515439e-05
3.9648157056253e-05
-8.416859117610896e-05
4.698200432671012e-05
-8.177093107062836e-05
5.399575588295966e-05
-7.753113678638274e-05
6.048396607178108e-05
-7.135206015541199e-05
6.635461206442729e-05
-6.351549502232926e-05
7.161719740081687e-05
-5.469703375867949e-05
7.66379052288419e-05
-4.543817801893099e-05
8.104278871323618e-05
-3.427526258063223e-05
8.46340704919174e-05
-2.128440178880525e-05
8.794849201014914e-05
-7.985148248945193e-06
9.252142715368725e-05
3.106967020727543e-06
8.329129247839784e-05
8.667243241496647e-06
8.094621692835887e-05
1.428007336060146e-05
8.519919850310531e-05
2.124376875238396e-05
9.959241728611073e-05
2.614523460071796e-05
0.0001023402388951853
8.154918893044942e-06
2.199939849596465e-05
0.0001191130855013819
2.597066728449961e-06
-8.103017409607175e-05
6.720133062754029e-06
-8.693343149753564e-05
1.122105132606135e-05
-8.859630240921119e-05
1.628348790651543e-05
-8.981163364952843e-05
2.193873477727878e-05
-9.098378176044542e-05
2.804428752520481e-05
-9.158846179822564e-05
3.436020345526955e-05
-9.093081846186139e-05
4.062551027080586e-05
-8.846407455975393e-05
4.665351312434473e-05
-8.396473699065505e-05
5.228068944662596e-05
-7.736131845823256e-05
5.742964095971419e-05
-6.901963703225153e-05
6.219463731326113e-05
-5.979566504515626e-05
6.684020614436683e-05
-5.041119972779057e-05
7.090860907921528e-05
-3.866374869278341e-05
7.492977667867606e-05
-2.560367349702414e-05
7.92618424360338e-05
-1.254069978917564e-05
8.476681287554514e-05
-2.561335474243592e-06
8.93281751372352e-05
3.95817053151314e-06
9.47113059544675e-05
8.741616082949286e-06
0.0001046022143208663
1.117644091487324e-05
0.0001183876690353391
1.226602018146175e-05
0.0001173520703779792
8.999033665933822e-06
1.382755344846498e-05
0.0001250977957527764
2.423109645383967e-06
-8.372304727020903e-05
5.699935929569738e-06
-9.047603731427055e-05
9.246367046326849e-06
-9.239616095449715e-05
1.323532486619761e-05
-9.404084931025372e-05
1.7662984947111e-05
-9.563794620506224e-05
2.236153744093791e-05
-9.649878610243427e-05
2.710840284088424e-05
-9.587473816269759e-05
3.171414381570276e-05
-9.325219924249278e-05
3.611434974412745e-05
-8.853192296514334e-05
4.025781182766108e-05
-8.165822139137037e-05
4.42422158900822e-05
-7.314395660286235e-05
4.796954076663388e-05
-6.365529880484816e-05
5.087344259630157e-05
-5.345214514093063e-05
5.285352101957832e-05
-4.077856522092659e-05
5.643471223696815e-05
-2.933032974579756e-05
6.192230403442083e-05
-1.816364174147166e-05
6.931418704671858e-05
-1.004961865966437e-05
7.699405115739057e-05
-3.812316630868397e-06
8.560170988822269e-05
2.328972257971786e-08
9.535999709436928e-05
1.303231083554956e-06
0.0001040445891665586
3.514189026649521e-06
0.0001085703024521427
4.35929331476343e-06
5.079134809310567e-06
0.0001170400569664913
1.998808287556458e-06
-8.587482175891673e-05
4.339218429769577e-06
-9.295397268917805e-05
6.79271847657521e-06
-9.497831911652269e-05
9.520223172183189e-06
-9.688870129619119e-05
1.246783666677999e-05
-9.869699845309483e-05
1.545115384180757e-05
-9.95849897956228e-05
1.82705037353931e-05
-9.878846055754398e-05
2.080970437177429e-05
-9.587548123231674e-05
2.307979086561857e-05
-9.087299355671048e-05
2.513068349588131e-05
-8.376729541111358e-05
2.716031590306196e-05
-7.521886929855114e-05
2.889600272652602e-05
-6.543337868303817e-05
2.972884763280532e-05
-5.432192717973004e-05
3.039836737413433e-05
-4.147464517195202e-05
3.417529562661255e-05
-3.312956698303629e-05
4.055292193240632e-05
-2.456132309587604e-05
4.806979548108309e-05
-1.758244378326648e-05
5.591091236645368e-05
-1.165477585645562e-05
6.303329636936963e-05
-7.087858430261125e-06
6.942130025946962e-05
-5.087959498720508e-06
7.660995908517048e-05
-3.714085613439656e-06
8.552436340333824e-05
-4.619037158555524e-06
-7.164930233096779e-06
9.762544357433801e-05
1.342828801886969e-06
-8.731155829400751e-05
2.669385096168161e-06
-9.436625398335099e-05
3.953538861453972e-06
-9.634322159987923e-05
5.317541906395051e-06
-9.832924778230514e-05
6.650201734636941e-06
-0.0001001023646318709
7.764701627743361e-06
-0.0001007685269785871
8.499669503678223e-06
-9.95872592499218e-05
8.810315720196716e-06
-9.624096838047309e-05
8.728220421234484e-06
-9.083323090385966e-05
8.392376908679828e-06
-8.346079402953577e-05
7.982443465953428e-06
-7.482598257969738e-05
7.507329642529381e-06
-6.496445859600577e-05
7.392987457392681e-06
-5.419062277760567e-05
9.400035147476463e-06
-4.344123313266797e-05
1.268368666852559e-05
-3.637745977282309e-05
1.74717320469919e-05
-2.931793348422916e-05
2.137406930730176e-05
-2.146897906128137e-05
2.608849294008338e-05
-1.636924037191294e-05
3.245651668702682e-05
-1.347122631132858e-05
4.140611255758669e-05
-1.407149438750335e-05
5.371289120821378e-05
-1.606455951893735e-05
6.821642343483624e-05
-1.918325059180599e-05
-2.315034664488205e-05
8.411190314683199e-05
5.391891994291301e-07
-8.792273679584169e-05
8.168036897110802e-07
-9.471290673048968e-05
9.251103011847978e-07
-9.651944543592239e-05
9.169392737750465e-07
-9.838805715219536e-05
6.296658910660501e-07
-9.988104513521776e-05
-1.029479081586234e-07
-0.0001000998735579756
-1.3720438915691e-06
-9.837823557001215e-05
-3.145289250418474e-06
-9.452087640105374e-05
-5.355854543930381e-06
-8.866764597451933e-05
-7.734269638704188e-06
-8.112048270509598e-05
-1.001684125141355e-05
-7.257551653414573e-05
-1.174139611402171e-05
-6.326121583573765e-05
-1.214845577594382e-05
-5.378091071825164e-05
-1.066698583016941e-05
-4.491780240620382e-05
-9.153497696673067e-06
-3.79268459247781e-05
-6.441022915842731e-06
-3.210661698217301e-05
-1.26649034763962e-06
-2.675105703383034e-05
7.228166151536228e-06
-2.497469603155397e-05
1.874104146551324e-05
-2.508945036418317e-05
3.164379048687071e-05
-2.708155521494497e-05
4.58327067769863e-05
-3.035755237373187e-05
6.111241794630205e-05
-3.456247267812545e-05
-3.939164833392224e-05
7.726306741272041e-05
-3.173546305997387e-07
-8.767262977560514e-05
-1.058681603623459e-06
-9.403868899330377e-05
-2.064509817576884e-06
-9.558074816685989e-05
-3.36105473857461e-06
-9.715874920989545e-05
-5.12403662703184e-06
-9.818523560220198e-05
-7.455028881284416e-06
-9.783498322212228e-05
-1.034783161321004e-05
-9.554868965167043e-05
-1.367366561555193e-05
-9.125473245434683e-05
-1.721426815161792e-05
-8.518578745292928e-05
-2.060039496727066e-05
-7.779696797863849e-05
-2.34645906745885e-05
-6.978075073348537e-05
-2.526350216775612e-05
-6.153779478881636e-05
-2.542487708919095e-05
-5.370918565320366e-05
-2.37144861208412e-05
-4.676125185670505e-05
-2.065731684285494e-05
-4.117236538811484e-05
-1.540270414798909e-05
-3.754559363436039e-05
-6.765764964269787e-06
-3.554179230578524e-05
3.596728181991294e-06
-3.545756786833034e-05
1.529452933314367e-05
-3.688488165447274e-05
2.780658039861154e-05
-3.967671940880637e-05
4.106836178218453e-05
-4.369317620394682e-05
5.51437209787267e-05
-4.870739813630114e-05
-5.439319479328891e-05
7.008127210609182e-05
-1.146579094526935e-06
-8.659375593202337e-05
-2.800477299706681e-06
-9.245279436474247e-05
-4.78607105825514e-06
-9.366338171479816e-05
-7.178861209049223e-06
-9.483438969313378e-05
-1.010742270196072e-05
-9.532517160471316e-05
-1.357473243738285e-05
-9.443588700573767e-05
-1.744293660043534e-05
-9.174852883150521e-05
-2.146550640134667e-05
-8.730203086974369e-05
-2.531737240115213e-05
-8.140993890998995e-05
-2.855566680623771e-05
-7.464588501093551e-05
-3.079183340519357e-05
-6.764745904293668e-05
-3.15603820299745e-05
-6.08914567380213e-05
-3.053103450556815e-05
-5.488413038839934e-05
-2.748210520778164e-05
-4.996874836300045e-05
-2.240171780916583e-05
-4.63930402943077e-05
-1.54597128427671e-05
-4.457921737960095e-05
-6.920189797705395e-06
-4.415243321873571e-05
2.608740654404092e-06
-4.504991741222641e-05
1.296952431805249e-05
-4.730711802013635e-05
2.400848327853699e-05
-5.077697709839419e-05
3.571223241165307e-05
-5.545885744214316e-05
4.815974521058045e-05
-6.121848508590308e-05