/*--------------------------------*- C++ -*----------------------------------*\
| =========                 |                                                 |
| \\      /  F ield         | OpenFOAM: The Open Source CFD Toolbox           |
|  \\    /   O peration     | Version:  2206                                  |
|   \\  /    A nd           | Website:  www.openfoam.com                      |
|    \\/     M anipulation  |                                                 |
\*---------------------------------------------------------------------------*/
FoamFile
{
    version     2.0;
    format      ascii;
    arch        "LSB;label=32;scalar=64";
    class       volScalarField;
    location    "0.4";
    object      rho;
}
// * * * * * * * * * * * * * * * * * * * * * * * * * * * * * * * * * * * * * //

dimensions      [1 -3 0 0 0 0 0];

internalField   nonuniform List<scalar> 
2268
(
1001.36017653959
1001.360176693002
1001.360176727214
1001.36017676851
1001.360176812863
1001.360176846962
1001.360176864178
1001.360176859832
1001.360176827854
1001.36017675976
1001.360176643967
1001.360176464621
1001.360176199154
1001.360175812619
1001.360175246836
1001.360174536995
1001.360173485308
1001.360171463973
1001.360166608705
1001.360152860606
1001.360106533953
1001.359896300604
1001.293766454984
1001.360179775485
1001.360179668482
1001.360179525329
1001.360179397844
1001.360179334871
1001.360179356472
1001.360179466701
1001.360179672415
1001.360179985247
1001.360180416169
1001.360180967389
1001.360181620751
1001.36018232028
1001.360182947953
1001.360183291944
1001.36018290219
1001.360181506699
1001.360178344164
1001.360171330851
1001.360154312032
1001.360104589339
1001.359897696481
1001.286821241008
1001.360143689595
1001.360142264902
1001.360141041602
1001.360139970333
1001.360139282414
1001.360139095425
1001.360139468428
1001.360140485644
1001.360142272562
1001.360144978759
1001.360148744949
1001.360153650741
1001.360159634636
1001.360166390207
1001.36017326021
1001.360177963104
1001.360179860615
1001.36017819667
1001.360170790385
1001.360151572368
1001.360099158529
1001.359896950247
1001.286884520383
1001.35999498942
1001.359989498599
1001.359984656865
1001.359980591959
1001.359977833296
1001.359976649178
1001.359977260685
1001.359980014252
1001.359985419519
1001.359994116933
1001.360006792786
1001.360024023806
1001.360046026029
1001.36007231868
1001.360101372775
1001.360126006009
1001.360143600507
1001.360153608255
1001.360153879907
1001.360138604688
1001.36008811649
1001.359894894652
1001.324987490005
1001.359602826981
1001.359588112953
1001.359574617013
1001.359563474986
1001.359555422251
1001.359550870816
1001.35955041163
1001.359555027155
1001.359566166157
1001.359585717519
1001.359615849064
1001.359658658621
1001.359715581403
1001.359786563025
1001.3598691922
1001.359947100007
1001.360010553381
1001.360059064747
1001.360089995096
1001.360097192358
1001.360062529661
1001.359888648198
1001.358411952997
1001.358785553121
1001.358754476707
1001.358724716104
1001.358699885943
1001.35868053309
1001.358667125854
1001.35866096941
1001.358664275053
1001.358680319029
1001.358713504104
1001.358769113836
1001.358852674109
1001.358968832286
1001.359119690262
1001.359303172016
1001.359491735863
1001.35965768418
1001.359799602081
1001.359911972509
1001.359985142612
1001.35999998518
1001.359869059685
1001.358526174631
1001.35734602592
1001.357291578807
1001.357236290148
1001.357188550284
1001.357148231827
1001.357115673748
1001.357093419983
1001.357085711393
1001.35709879169
1001.357141269291
1001.357223772666
1001.357357956521
1001.35755475899
1001.357821489328
1001.358159199176
1001.358534896952
1001.358886610388
1001.35921126477
1001.359495651768
1001.359718811508
1001.3598525282
1001.359814381064
1001.358645991327
1001.355126355415
1001.35504423255
1001.354953540955
1001.354871326587
1001.354796460967
1001.354728674659
1001.354672541783
1001.354635417861
1001.354627648106
1001.35466382108
1001.35476216138
1001.354943209997
1001.355227667528
1001.355631711896
1001.356163337062
1001.356802096848
1001.357433922579
1001.358056264078
1001.358643887451
1001.359152426427
1001.359528053234
1001.359678024955
1001.358754634916
0.9530257991944009
0.953025784644736
0.9530267625815191
0.9530278477860953
0.9530274532971816
0.9530247566897357
0.953020981361773
0.953018498283574
0.953019356431754
0.9530243035908844
0.9530325750096502
0.9530434482215695
0.9530519463459708
0.9530590349240979
0.9530597549727433
0.9530479504664877
0.9530384543355354
0.9530681536531154
0.953180915936388
0.9530276362899138
0.953033633533411
0.9530517702480615
0.9530773469556808
0.9531009779289296
0.9531184538267622
0.9531385362226408
0.9531769757952933
0.9532456547152427
0.9533442463821832
0.953457761041556
0.9535732186242512
0.9536380198275308
0.9536832581124125
0.9536592617078306
0.9535104722267742
0.9533701905515979
0.9535663834483414
0.9544819874053406
0.9530219753155967
0.9530661740822043
0.9531594692945101
0.9532969881716521
0.9534369080042859
0.9535654619374934
0.9537294452701193
0.9540066349860448
0.9544523179271315
0.9550438617876854
0.9556517131706815
0.9561534110252732
0.9563161692108276
0.9564301002283292
0.9562429152515957
0.9554987267794297
0.9547917394424703
0.9555761495865729
0.9594731338040372
0.9531045329384018
0.9532136889542413
0.9535364101801175
0.9540036643412206
0.9545108804303768
0.9550341916828248
0.9557328912955869
0.9568803301161692
0.9586444865963977
0.9608616862052303
0.962886621288616
0.964102748512547
0.9640333550635424
0.9640837946148025
0.9633530323084336
0.9610297514068882
0.9588194528914553
0.9609635823760097
0.9720414711682335
0.9530050610118942
0.9532199100318286
0.9541548981469811
0.9556370630244211
0.9571541665766895
0.9586423425715566
0.9607310504350277
0.9641108626252586
0.9691326370890888
0.9751414760933321
0.9799447515384407
0.9813426860915203
0.9797632497423155
0.979317715958119
0.9775068291478259
0.9722991272764083
0.9672834611348488
0.9715903488346201
0.9950211444057611
0.9526044674824315
0.9546265578555226
0.9571609731472664
0.9593168348719125
0.9619975699070619
0.9655817783339313
0.9703810041054841
0.9780336382760317
0.9891463484397021
1.001993715632969
1.011075206489518
1.009371652659029
1.004062720868897
1.002717248458559
0.9996792890954254
0.9905315907252278
0.9814083523401512
0.9878690442544412
1.027278050250827
0.9568394483618941
0.9559850455139555
0.9575915159683623
0.9651019676908329
0.9719618763896261
0.976839318597477
0.985356354370294
0.9993670956737339
1.019575418948811
1.04303229865572
1.058852654314753
1.045812199809245
1.03380595415796
1.032202409694016
1.029100036523311
1.015603015945881
1.001207034420958
1.008033207242803
1.063496699379691
0.9371146633477035
0.9410440403606715
0.9504984369642451
0.9608783405487346
0.9712280009128257
0.9874619194890294
1.00250382450607
1.023907387961671
1.05490301891656
1.094653654605577
1.127062010661996
1.08848780499385
1.062855565736425
1.064027342654934
1.06438507953225
1.046934728268167
1.025988147923216
1.029279959291611
1.097426082602224
1001.352060110495
1001.351947684469
1001.351811845543
1001.351681862459
1001.351556218265
1001.351432400748
1001.351318153761
1001.351225840591
1001.351170546269
1001.351174054865
1001.351263119309
1001.351467979952
1001.351820433833
1001.352345505722
1001.353051538659
1001.353939060523
1001.354761584616
1001.355569036884
1001.356394242457
1001.357237327601
1001.358054905015
1001.3587259033
1001.358646936011
1001.344841783026
1001.344672946051
1001.344418959335
1001.344179788446
1001.343935962095
1001.343673710654
1001.343411747829
1001.343179637017
1001.343001473805
1001.342914617094
1001.342960321023
1001.343183672854
1001.343637561435
1001.344367037376
1001.345376098245
1001.346674820192
1001.348115064874
1001.349591227218
1001.351135167815
1001.352765580983
1001.3544296424
1001.355965157035
1001.356924220352
881.926286838283
884.9964015845911
883.1699494942984
879.5470899905889
874.6765226031865
868.7916255455279
862.3024433184871
855.9247031066687
850.6723922804894
847.7883993777278
849.2842753913764
856.4731884351975
871.1703118207513
894.3895441958033
925.3407407208339
959.5466771137669
997.6167272352286
1001.340670278699
1001.342589980537
1001.344739118006
1001.347159433731
1001.349728984586
1001.352072808296
141.8860568157912
146.1943561719662
143.9596242308744
139.91152457815
134.5867423633893
128.3273912214264
121.6743582616049
115.3803910301527
110.3353203223806
107.5004216558563
108.435609039573
114.4345211038119
127.6971169685134
151.4764866901808
190.1356006841048
246.9188133324312
338.3932789682057
509.8698683905906
738.6933097558752
960.8293624969428
1001.335978068509
1001.338662358795
1001.341936099219
1.132311442072078
1.130952370419783
1.128217740560454
1.125671698154907
1.122598676679953
1.119185732382431
1.115923653978069
1.113079068282223
1.111477585433386
1.112106096406831
1.114989855689173
1.119705422556071
1.126074202610674
1.134929483796123
1.147723917927056
1.165368019763809
1.182810042149285
8.519494945621208
47.07781646465682
150.2097625929556
340.9725445881534
607.9900782758303
853.0127458521929
1.042820231523859
1.038314247343875
1.03458938251376
1.031612201459051
1.028065314631894
1.024165719473599
1.020547954146503
1.017849676773945
1.016560238582709
1.017090548629956
1.019493119691925
1.023563423479895
1.029726196386492
1.039711933115827
1.056070246357881
1.080849396577
1.110015612129704
1.121807980998647
1.133167527992541
1.142166261281522
1.161897097613123
25.35923740591338
116.6945399101514
0.9932477147552012
0.9883613235289596
0.9855012768920255
0.9830724848475256
0.9804145188155341
0.977711476822836
0.9754562677434037
0.974007637103538
0.9735912333044401
0.974273123138982
0.9760673792562552
0.9788731323527555
0.9862230650753725
0.9987371511196101
1.004116443835536
1.018529618026309
1.04186340281217
1.057373462762764
1.072535814184301
1.084145017296572
1.104064662764204
1.0884428335942
1.099888191094146
0.9687940618227097
0.9656637985783246
0.9640914633139535
0.9626957729418926
0.9613198779205059
0.9601305051436619
0.9593889967937154
0.9593010054872966
0.9599512786966585
0.9612944038419308
0.9632955091576578
0.9658030030140766
1.006023095371203
1.031295100402002
1.01262251038185
0.9877419418993595
0.9991963438887351
1.011992398703613
1.023389908406525
1.032275792075922
1.040803177253151
1.041005429379597
1.04034266065549
0.9584724256763251
0.957034404597923
0.9564066210141019
0.9558972049132652
0.9554653850767065
0.9552566311319554
0.955480940717815
0.9562748992747636
0.9579341947620772
0.9597978664031764
0.9621468244443797
0.9649546665768149
1.016988377158009
1.029606627529492
1.015479705334032
0.9888189883669233
0.9986160061093179
0.9989356024028719
1.007176062701423
1.12323441046957
1.129954330688509
1.029239923669589
0.9929855138295999
0.9549632139766797
0.9545661228408494
0.9544038251386872
0.9543044061128401
0.954300715805194
0.954524845389523
0.9551942713780202
0.956443019749758
0.9597490748250272
0.9616941845328399
0.9634853510749047
0.9665846176299296
0.9715866588152187
0.9747048729574154
1.030621371369547
1.070490890913456
1.127130946100582
1.128572708070572
1.12885114823854
1.126523627609216
1.061723793443081
0.9767121160732978
0.970443833813705
0.9541730298975244
0.9541423987280525
0.9541489160679857
0.9541862668874218
0.9543129099475854
0.9546736755301766
0.9554979887933825
0.9572376194030939
0.9602708379182003
0.9621849810661238
0.9638508176104476
0.9667139870008185
0.9705955688434774
0.9744692704503687
1.046461252341834
1.074324643435385
1.068798016582341
1.039759460889579
0.9805389904169014
0.9669071541422063
0.9628130092807395
0.9598264003246332
0.9577948252967751
0.9541676197096832
0.9542082301619063
0.9542338162497814
0.9542823743261719
0.954420216898121
0.9547978071663183
0.9557011218276803
0.9575705836809515
0.9596629943017709
0.9603302358470729
0.9621805434140612
0.9643545868537976
0.9669792066572915
0.9692837877263528
0.967464770957383
0.9924336794475829
0.9629867164146226
0.9596599710331185
0.9573040527852449
0.955867177822557
0.9550819479233992
0.9546906946117042
0.9545769145806192
0.9542594543100382
0.9542819376890284
0.9542958185142409
0.9543310654525614
0.954454187395295
0.9547989342093571
0.9556730073973831
0.9571076796964931
0.9575495556658157
0.9584605676798365
0.9592213962252963
0.9598852963821376
0.9601107077014699
0.9588180022048015
0.9564667633603688
0.9551852255870557
0.9543948281462041
0.95412721555571
0.9541328001611471
0.9542024316985779
0.9542731490297091
0.9543399844978443
0.9544741805736453
0.9543020777106413
0.9543065439895279
0.9543104798332561
0.9543343145561366
0.9544324546606503
0.9546984846836446
0.9553197613686542
0.9559271756374399
0.9562200106424839
0.9563811144729615
0.9562231507550246
0.9557933116569077
0.9550027087184567
0.9539665676410908
0.9533736163545318
0.9538435998686027
0.9541309640291722
0.9542670436713695
0.9543195988784086
0.9543343073779713
0.9543477992032867
0.9543875127503824
0.9545224609496615
0.9543073712614626
0.9543050956850896
0.9543057504035891
0.9543202145434077
0.9543821543736106
0.9545398688862328
0.9547862570253943
0.9550335861035839
0.9551434321407706
0.9549814458129862
0.9546428632837753
0.9542469436309895
0.9539570434478425
0.9539671550279863
0.9542537050774237
0.9544026682668582
0.9543605818021746
0.9543244209949081
0.954309498845112
0.9543090984450444
0.9543281809714023
0.9543852093429754
0.9545386025615171
0.9543011046704591
0.9542990493439076
0.9542987315498612
0.9543045018172708
0.9543303733272511
0.9543936637783034
0.9544896305597718
0.9545722462500257
0.9545780560256918
0.9544631782104079
0.954313440153074
0.9542233535391879
0.9542489093132958
0.9543347650258885
0.9543550883820588
0.9542934188695446
0.9542841704638908
0.9542880829014789
0.9542940825963427
0.954303194456287
0.9543270819182205
0.9543900777220663
0.9545467517337229
0.9542961260550074
0.9542954452193191
0.954294827997071
0.9542945385354323
0.9542975525658478
0.9543101235563535
0.9543348522712488
0.9543592871072604
0.9543600669911143
0.9543299052121841
0.954290586294759
0.9542723641194406
0.9542761305450264
0.9542787760705602
0.9542795706075676
0.9542939274369506
0.9542918384213123
0.9542926029857838
0.9542947026236351
0.9543018818237496
0.9543245569070173
0.9543865914040095
0.9545382142280425
0.9542943058747326
0.954294347351979
0.9542936855935885
0.9542913877607447
0.9542866126718258
0.9542811740397034
0.9542791384683205
0.9542816068470202
0.9542832470132012
0.954278545028203
0.9542706413262317
0.9542688657440863
0.9542778498995091
0.9542910387259369
0.9542965501693292
0.9542906309791404
0.954289538514502
0.9542905518195457
0.954292550099908
0.9542991879175871
0.9543198029950435
0.9543762197952113
0.9545148926987648
0.9542939427243693
0.9542939629059854
0.954293421879847
0.9542915827938954
0.9542870986418489
0.9542797057517816
0.9542715927647938
0.9542662877099909
0.9542653904270494
0.9542678890632194
0.9542727464909596
0.9542801541376527
0.9542876679080849
0.9542909607720832
0.9542899090064039
0.9542891141598447
0.9542889260407027
0.9542894328777912
0.9542909145573018
0.9542963522969923
0.9543132880691474
0.9543605302558363
0.9544789233892229
0.954293380649388
0.9542932164625849
0.9542928408915764
0.9542919815803607
0.954289861486493
0.9542857659200717
0.9542801848795409
0.9542753286294781
0.9542737029741657
0.9542760922940969
0.9542809476694459
0.9542858154039283
0.9542887517949734
0.9542893719936938
0.9542887208086419
0.9542880322055276
0.9542879711942264
0.9542881763280792
0.9542892098406714
0.9542932864878185
0.9543062616644061
0.954342676365069
0.9544352337986924
0.9542922789232602
0.9542920719163002
0.9542918131079458
0.954291516857561
0.9542909622741643
0.9542897420559294
0.9542876854057635
0.9542853799865645
0.9542840156351255
0.9542843757815392
0.9542859959229872
0.954287582411834
0.9542881895338945
0.9542878822199763
0.9542873558361559
0.9542870852569568
0.9542869703615015
0.9542869687921156
0.9542875544615286
0.9542902541063994
0.9542992354142167
0.9543250925311503
0.9543920279477388
0.9542910291194405
0.9542908812101921
0.9542906729607781
0.9542905009478519
0.9542903568439783
0.9542901359218339
0.9542896748005829
0.9542889160847519
0.9542880730825963
0.9542874954696815
0.9542872926329725
0.9542872144016276
0.9542869880786252
0.954286635614559
0.9542863375973253
0.9542861379244703
0.9542859622340747
0.9542858245107347
0.954286014806945
0.9542874577997973
0.9542927889799245
0.9543088518046138
0.9543516944172222
0.9542899230103685
0.9542898199035909
0.9542896236106235
0.9542894212793109
0.954289214820477
0.9542889922737712
0.9542887252100252
0.954288357932609
0.9542878553388209
0.9542872666721797
0.9542867009150232
0.9542862340639692
0.9542858739590905
0.9542856003528962
0.9542853872631544
0.9542851931524097
0.9542849787841885
0.954284757244056
0.9542846721049999
0.954285224531323
0.9542878941650611
0.954296625398391
0.9543209299533666
0.9542889155009776
0.9542888191351774
0.9542886268509138
0.9542884081694627
0.954288151499038
0.9542878343573056
0.9542874562334763
0.9542870324457217
0.9542865740648571
0.9542860933325998
0.9542856255061076
0.9542852206604656
0.9542849060552634
0.9542846670061881
0.9542844645824593
0.9542842603210164
0.95428402609608
0.9542837551304763
0.9542835058290365
0.9542835210940138
0.9542845443401303
0.9542886177345511
0.9543008100039974
0.9542878803429273
0.9542877903016099
0.9542876106246038
0.9542874032465612
0.9542871621349609
0.9542868577627353
0.9542864725632724
0.954286021399342
0.9542855439532614
0.9542850815985158
0.9542846635952251
0.9542843062732752
0.9542840132120842
0.9542837731233856
0.9542835618482678
0.9542833484728239
0.9542831019679247
0.9542828030026179
0.9542824687166523
0.9542822047385585
0.9542823485987961
0.9542838622810024
0.9542892082484604
0.9542868191242528
0.9542867481698979
0.9542865883135959
0.9542863986227595
0.9542861797548151
0.9542859086396113
0.9542855638923626
0.954285147494901
0.9542846890160301
0.9542842312167998
0.9542838113000112
0.9542834499577415
0.9542831503826651
0.9542829017150471
0.9542826818660154
0.9542824601252031
0.9542822034581914
0.9542818883432843
0.95428151484909
0.9542811250918138
0.9542808609102319
0.954281143413144
0.9542830749663457
0.9542857821294541
0.9542857274778456
0.9542855860062242
0.9542854124273632
0.9542852112865463
0.954284965290493
0.9542846538605519
0.9542842728130115
0.9542838423899601
0.9542833992757023
0.9542829813258709
0.9542826145857162
0.9542823075545614
0.9542820516614977
0.9542818245153224
0.9542815945759661
0.9542813288636657
0.9542810037380792
0.9542806135154415
0.9542801745508512
0.9542797451227196
0.9542795055019276
0.9542799268069896
0.9542847583278111
0.9542847142008093
0.9542845880030114
0.9542844280703494
0.9542842418988928
0.954284016968565
0.9542837342196981
0.9542833858267641
0.954282985196914
0.9542825632068376
0.9542821558926115
0.954281791353074
0.954281481598658
0.9542812206376708
0.9542809871174631
0.9542807499203361
0.9542804768782391
0.9542801453464785
0.9542797486142438
0.9542792943567628
0.9542788094375617
0.9542783773462082
0.9542782007695375
0.9542837297216851
0.9542836964426449
0.9542835855028607
0.954283440784074
0.9542832716990401
0.9542830692581925
0.9542828152961684
0.9542824988860455
0.9542821281025409
0.9542817291198398
0.954281335838268
0.9542809771355357
0.9542806675180947
0.954280403590636
0.9542801656518662
0.954279923468214
0.9542796457279117
0.954279310888714
0.9542789127735303
0.9542784571579583
0.9542779611202302
0.9542774728835481
0.9542770885265256
0.9542827106177376
0.954282684817933
0.9542825864211859
0.9542824549880662
0.9542823012320063
0.9542821192771302
0.9542818923968304
0.9542816073772385
0.9542812671548009
0.9542808928523643
0.9542805158716877
0.9542801655755609
0.9542798588116632
0.9542795947215915
0.9542793553780585
0.9542791115458349
0.9542788326751901
0.954278498028693
0.9542781022278832
0.9542776515452895
0.9542771615477321
0.9542766695234535
0.9542762311089991
0.9542816935978879
0.9542816727512261
0.9542815844115853
0.9542814645878919
0.9542813250008276
0.9542811622518306
0.9542809608632312
0.954280705882969
0.9542803959157963
0.9542800474153045
0.9542796890103554
0.9542793500159322
0.9542790492283399
0.9542787882636731
0.9542785511273304
0.9542783096974521
0.9542780339962779
0.954277703671613
0.9542773138791435
0.9542768720263509
0.9542763949840409
0.9542759177368099
0.9542754802316759
0.9542806796737122
0.9542806611511353
0.9542805801318571
0.9542804697512155
0.9542803425190424
0.954280197011377
0.954280018937734
0.9542797920630186
0.9542795113043352
0.9542791888397071
0.954278850488584
0.9542785251933295
0.9542782333266472
0.9542779788444949
0.9542777477373459
0.9542775130457382
0.9542772451873202
0.9542769237716122
0.9542765440874422
0.9542761146363823
0.9542756544436541
0.9542751992907073
0.9542747826368275
0.9542796675883242
0.9542796489207382
0.9542795725825456
0.954279469403025
0.9542793525891675
0.9542792223128531
0.9542790653051272
0.9542788643746644
0.954278611328061
0.9542783145187959
0.9542779970572537
0.954277687282993
0.9542774068733705
0.9542771619507199
0.9542769404981041
0.9542767167440127
0.9542764613480601
0.9542761535258061
0.9542757882701431
0.9542753748944277
0.9542749346541547
0.9542745052649393
0.9542741176042607
0.9542786564930557
0.9542786355420569
0.9542785615270637
0.9542784634500401
0.9542783551721257
0.9542782381250554
0.9542780999166288
0.9542779226323133
0.9542776954718113
0.9542774234275656
0.9542771270582022
0.9542768340068789
0.9542765670113145
0.9542763342139395
0.9542761255431864
0.9542759163954272
0.95427567758913
0.9542753876872616
0.9542750410185699
0.9542746473232351
0.9542742299451168
0.9542738290959194
0.954273475140302
0.9542776454722185
0.9542776205020803
0.9542775469313065
0.9542774522363181
0.9542773508582899
0.9542772452337919
0.9542771236755951
0.9542769676967131
0.9542767643617159
0.9542765157633702
0.9542762401715836
0.9542759644848042
0.9542757123070919
0.9542754935891958
0.9542753000971083
0.954275108388401
0.9542748894055534
0.9542746209372402
0.9542742963649334
0.9542739254461511
0.9542735332844609
0.9542731628923934
0.9542728457826937
0.9542766335870331
0.9542766034290397
0.9542765290381562
0.9542764365296831
0.9542763408570784
0.9542762451743898
0.9542761383137441
0.9542760013419908
0.9542758196040166
0.9542755927949471
0.9542753372235023
0.9542750790782966
0.9542748426109434
0.9542746392905374
0.9542744625396321
0.9542742900262269
0.9542740928703176
0.9542738480944349
0.9542735479926105
0.9542732020122022
0.954272836746745
0.9542724981642229
0.9542722199906466
0.9542756199265882
0.9542755840637804
0.9542755083625047
0.954275417552957
0.9542753269324924
0.9542752401109308
0.954275146270537
0.9542750261266603
0.954274863684988
0.9542746567982786
0.954274420203571
0.9542741794318883
0.9542739591436833
0.9542737719469672
0.9542736126112971
0.9542734598434499
0.9542732850517813
0.9542730646742305
0.9542727899208332
0.9542724696899194
0.9542721316789442
0.9542718248329982
0.9542715860473024
0.9542746036950661
0.9542745624733671
0.9542744858523524
0.9542743970317301
0.9542743114064985
0.9542742327705785
0.9542741504802983
0.9542740450232973
0.9542738995202119
0.9542737105294353
0.9542734916569198
0.9542732678609452
0.9542730638945324
0.9542728929899178
0.9542727508305109
0.9542726170140066
0.954272463436914
0.954272266303913
0.954272016006467
0.9542717208441176
0.9542714094086056
0.9542711333438182
0.9542709327499109
0.9542735845696285
0.9542735393379181
0.9542734632375697
0.9542733775701354
0.9542732974403026
0.9542732265268848
0.9542731543028613
0.9542730612862546
0.9542729302789158
0.9542727572116654
0.9542725549689327
0.9542723478907431
0.9542721603362356
0.9542720054437106
0.9542718792528742
0.9542717621317441
0.9542716268240627
0.9542714498900567
0.954271221367507
0.9542709490292478
0.9542706619681327
0.9542704140623147
0.9542702484212977
0.954272563761954
0.9542725168948263
0.9542724439623886
0.9542723635213058
0.9542722897464888
0.9542722258745271
0.95427216167754
0.954272078360673
0.9542719593173136
0.9542718005777882
0.9542716144989698
0.9542714243386919
0.9542712531422302
0.954271113048388
0.9542709999361865
0.9542708950883211
0.9542707728169313
0.9542706110319694
0.9542704001665869
0.9542701476572651
0.9542698826808812
0.9542696602208924
0.9542695250039306
0.9542715462608006
0.9542715005895633
0.95427143489804
0.9542713627644249
0.9542712961580174
0.9542712375272167
0.9542711776946357
0.9542711002000921
0.9542709907239363
0.9542708462175756
0.9542706779313196
0.954270506323091
0.9542703511239351
0.9542702221820415
0.9542701152886014
0.9542700140210573
0.9542698963172359
0.9542697432107957
0.9542695462758873
0.9542693120925085
0.9542690684927146
0.9542688697617606
0.9542687610021897
0.9542705395982543
0.9542704992739174
0.954270446309782
0.9542703860528201
0.9542703261285533
0.9542702676444917
0.9542702043483309
0.9542701256499969
0.9542700227901788
0.9542698945603532
0.9542697486983223
0.9542695982042496
0.9542694550378464
0.9542693249891129
0.9542692057523124
0.9542690880883744
0.9542689590721144
0.9542688065194666
0.9542686236007706
0.9542684135961984
0.9542681992326791
0.9542680312704416
0.9542679527942295
1001.358558083472
1001.357196399405
1001.35668037756
1001.353420731895
1001.357231467167
1001.354262732181
1001.35302453977
1001.356233610766
1001.353012204202
1001.351907216932
1001.351007887699
1001.354215345721
1001.343380336372
1001.344636552674
1001.34584653386
1001.34692911782
989.2311592651703
1001.332290586353
1001.333040060931
1001.333933006634
223.2345874009399
312.0846743076855
390.1305425990901
495.102852367086
1.106593650562309
1.113135156487623
1.114235981293323
6.090202971715527
1.040977425267148
1.037944313283768
1.036276303941395
1.043109927716701
0.9916312420718477
0.9903035901646572
0.9889995786607946
0.9882795748968131
0.9684272937620632
0.9667638938893039
0.9653212700285789
0.9641361329261914
0.9570983558977454
0.9565831367505018
0.9561972198377654
0.9558900869629434
0.9545677624984575
0.9545886156079746
0.9546600186977184
0.9547155124976985
0.9545460711903879
0.9546399644065489
0.9548005723998055
0.9549603180284599
0.9546131809585024
0.9547598243911911
0.9550111359015302
0.9553219017437562
0.9546701337844278
0.9548944768632478
0.9552499553340822
0.9557329890866525
0.9547290182241652
0.9550235713391472
0.9554560159097499
0.9560676859873795
0.9547680313548681
0.9550968036086226
0.9555585872129129
0.9562234439269358
0.9547682319266051
0.9550857120831041
0.9555312412907946
0.9561735323400388
0.9547216808678208
0.954995540685407
0.9553898174837234
0.9559513548100727
0.9546378714276919
0.9548556612988434
0.9551752672288613
0.95562479131872
0.954541017233693
0.9547023658825909
0.9549390449255345
0.9552726678598923
0.9544491970286795
0.9545559004811975
0.954713407106646
0.9549370191036869
0.9543779419844771
0.9544413221105575
0.95453599929241
0.954672077969548
0.9543306653448282
0.9543645257858338
0.9544159570628761
0.9544911235711446
0.9543032915528883
0.9543196696138212
0.9543451044695753
0.9543830707666684
0.9542890112058463
0.9542961075405408
0.9543074642960457
0.9543248804716632
0.9542821207816592
0.9542848248334511
0.9542893680636304
0.954296609200761
0.9542788345842032
0.9542796440743667
0.9542811760912568
0.9542838101787334
0.9542771303048236
0.95427719318825
0.9542775056751683
0.9542782228619756
0.9542760735609324
0.9542758718224803
0.954275736041991
0.9542757233163172
0.9542752671564022
0.9542749852126556
0.9542747038090271
0.9542744396945437
0.9542745637971128
0.9542742682991118
0.9542739534660855
0.9542736193635398
0.954273910525001
0.9542736254805447
0.9542733169738411
0.9542729777156953
0.9542732863645079
0.9542730205706468
0.9542727325624722
0.9542724101252267
0.954272679308997
0.9542724369710552
0.9542721746153923
0.9542718758869358
0.9542720778559433
0.9542718608351116
0.9542716262439863
0.9542713529030868
0.9542714699271604
0.9542712789180258
0.9542710720122427
0.9542708232013717
0.9542708423569281
0.9542706763897009
0.9542704958422007
0.9542702695334951
0.954270182817574
0.9542700397113576
0.9542698825684274
0.9542696757850246
0.9542694815555764
0.9542693578345447
0.954269220437395
0.9542690301176416
0.9542687399899328
0.9542686324693535
0.9542685107871497
0.9542683328916899
0.9542679573488786
0.9542678626734186
0.9542677497561252
0.9542675796033676
20.26923906540959
1.046642200918316
1.071912371986978
1.093257655543895
1.078703806148073
1.04709272314408
1.043061968155839
1.066521013958488
1.115492531027836
1.160197928500841
1.195358796911477
1.148242327555839
1.085332933095547
1.095454847321071
1.106018694557271
1.08747751347666
1.058019454921713
1.051680362123723
1.12738399391631
673.2963048229828
41.01094138729407
36.58509372360196
185.6332528347942
183.372409536966
21.15043156329963
1.190935211540858
1.171789209421093
1.200653226524161
244.2293156030289
530.1187829120984
526.7224232131961
290.3342220199115
6.716488856669242
3.690269804488542
8.161048553899597
1.13732346234271
1.100232766065906
1.170936953007834
1001.346837838134
725.2589104034651
735.3970376716449
899.2014588670049
907.8864165267149
713.2936839453882
426.2580728872924
428.3273888106894
662.7579832343162
946.6525156357708
1000.195267710661
996.9269007473547
935.8921753556956
844.6814600856624
835.4923507713719
621.8830988665015
197.1920678867865
10.68757805558969
1.193121516112499
1001.346155678303
1001.342652927893
1001.341352278812
1001.340967949957
1001.339847998428
1001.338273316652
993.4442592890881
995.2449828251814
1001.3375467827
1001.337021077211
1001.336032387949
1001.334422868947
1001.33212426525
1001.328848218365
1001.324183943562
1001.317377143465
984.2857599231208
564.9417947005628
237.0108371574016
1001.335628681888
1001.336313782945
1001.336656085749
1001.336720270374
1001.336427566655
1001.336047867657
1001.335810651007
1001.335796052118
1001.335716119806
1001.335415676294
1001.334780080633
1001.333694376177
1001.332026009674
1001.329509856443
1001.325720147403
1001.319938034531
1001.311449349549
988.0258193866038
753.8246678552321
703.1196871733613
813.2071202795004
861.9668479772586