/*--------------------------------*- C++ -*----------------------------------*\
| =========                 |                                                 |
| \\      /  F ield         | OpenFOAM: The Open Source CFD Toolbox           |
|  \\    /   O peration     | Version:  2206                                  |
|   \\  /    A nd           | Website:  www.openfoam.com                      |
|    \\/     M anipulation  |                                                 |
\*---------------------------------------------------------------------------*/
FoamFile
{
    version     2.0;
    format      ascii;
    arch        "LSB;label=32;scalar=64";
    class       volScalarField;
    location    "0.4";
    object      T.air;
}
// * * * * * * * * * * * * * * * * * * * * * * * * * * * * * * * * * * * * * //

dimensions      [0 0 0 1 0 0 0];

internalField   nonuniform List<scalar> 
2268
(
272.9999508237049
272.9999502000068
272.9999500609181
272.9999498930302
272.9999497127116
272.999949574084
272.9999495040904
272.9999495217619
272.999949651768
272.9999499286027
272.9999503993563
272.9999511284872
272.999952207742
272.9999537791995
272.9999560793892
272.9999589652419
272.9999632408681
272.9999714585942
272.9999911976526
273.0000470904554
273.0002354311041
273.0010901321801
273.0084915327486
272.9999376681965
272.9999381032209
272.9999386852059
272.9999392034969
272.9999394595137
272.9999393716947
272.9999389235576
272.9999380872267
272.9999368154091
272.9999350634972
272.9999328225146
272.9999301662752
272.9999273223438
272.9999247705393
272.9999233720459
272.9999249565881
272.9999306299487
272.9999434872123
272.9999719997957
273.0000411896899
273.0002433369086
273.0010844572585
273.008220158094
273.0000843752122
273.0000901672927
273.0000951406121
273.0000994958468
273.0001022925749
273.0001030527802
273.0001015363339
273.0000974008499
273.0000901361424
273.0000791341118
273.0000638226845
273.0000438782116
273.0000195507182
272.9999920859772
272.9999641560124
272.9999450364223
272.9999373220977
272.9999440868506
272.9999741970543
273.0000523277747
273.0002654158146
273.0010874910569
273.0079068105263
273.0006889145078
273.000711237378
273.0007309213874
273.0007474472113
273.0007586625198
273.0007634765323
273.0007609904522
273.0007497958514
273.0007278207901
273.0006924615466
273.0006409280007
273.0005708754654
273.00048142564
273.000374533102
273.0002564139131
273.0001562676796
273.0000847373616
273.0000440509171
273.0000429465045
273.0001050477855
273.0003103071257
273.0010958480447
273.0075422014976
273.0022832436384
273.0023430631339
273.0023979305154
273.0024432281158
273.002475966278
273.0024944699964
273.0024963367877
273.0024775724763
273.0024322871477
273.0023528015828
273.0022303025411
273.0020562613179
273.0018248430211
273.0015362686769
273.0012003412207
273.0008836081886
273.000625639271
273.000428416806
273.0003026697327
273.0002734092989
273.0004143301397
273.0011212429038
273.0071246832717
273.0056058372334
273.0057321766394
273.0058531666549
273.0059541122067
273.0060327900603
273.0060872963471
273.0061123249617
273.0060988860272
273.0060336601509
273.0058987481268
273.0056726698961
273.0053329601325
273.0048607249623
273.0042474188138
273.0035014811075
273.0027348811122
273.0020602227276
273.0014832585495
273.0010264184634
273.0007289463783
273.0006686040493
273.0012008796819
273.0066603230122
273.0114581169668
273.0116794657362
273.0119042356033
273.0120983165813
273.0122622265912
273.0123945876246
273.0124850576309
273.0125163959149
273.0124632194142
273.0122905315772
273.0119551234293
273.0114096136787
273.0106095336817
273.0095251669999
273.0081522362347
273.0066248639505
273.0051949936161
273.0038751262869
273.0027189609866
273.0018117108706
273.001268088245
273.001423174646
273.0061732159015
273.020481856717
273.0208157115147
273.0211844005523
273.0215186267886
273.0218229779042
273.0220985493031
273.0223267458881
273.0224776653863
273.0225092515537
273.0223621976492
273.0219624150973
273.0212263978912
273.0200699899735
273.0184274195663
273.0162661831465
273.0136693946911
273.0111007810264
273.0085707102003
273.0061817697088
273.0041143309646
273.0025872336592
273.0019775275089
273.0057315318958
344.4240090627745
344.4234537008707
344.4222418716907
344.4206343822164
344.4192375722857
344.4183203326662
344.4174558348586
344.4159560296132
344.4134237789287
344.4099298921195
344.4058473393813
344.4013188707921
344.3980425127463
344.3957247622885
344.3962881755097
344.4020534191459
344.4077130475499
344.3996552270251
344.360734994212
344.4232336854484
344.4204825277386
344.4130540352284
344.4025867206495
344.3925066706054
344.3842912162618
344.3747780256143
344.3584461973055
344.3313677806651
344.2940388440088
344.2519756995043
344.2097152673804
344.1861107031554
344.1699902574758
344.1794350629529
344.2346072487628
344.2874574402929
344.2193248870347
343.8910220289031
344.4252322528699
344.4086220853649
344.3740060525406
344.323087988897
344.2710165943983
344.222686460666
344.1611885199804
344.0586591570884
343.895648974888
343.6809086696907
343.4612877617391
343.2805483452623
343.2218967549737
343.1811422352093
343.2490292240077
343.5177722639602
343.7742813829817
343.4948412333404
342.101788347577
344.3954232498579
344.3552594316759
344.2377580654342
344.067898322101
343.8835306266912
343.6931603316223
343.4395022663257
343.0250031862174
342.3912722830038
341.5994464492516
340.8801437241004
340.4497297271048
340.4739965910896
340.4561891899381
340.7150346163457
341.5400259930054
342.3294154564804
341.5683732815164
337.6780727224677
344.4314734247253
344.3529864753201
344.014520067583
343.4796901742996
342.9337575612544
342.3994340729819
341.6525179180925
340.4519686741519
338.6852060730017
336.5964514919659
334.9458255085467
334.4684238303887
335.0073676416627
335.1595954943087
335.7809134032412
337.5805823637399
339.3329714422369
337.831447394482
329.8790147662596
344.5765009425542
343.8455937598146
342.9340029225634
342.162055214862
341.2071087121084
339.9385850912361
338.2546896897138
335.6049466924598
331.8317227376288
327.5752652507119
324.6324254819771
325.1802728577726
326.8994419984124
327.3376386874753
328.3325847288091
331.3658550320789
334.4480019450784
332.2631274798509
319.5201415922936
343.051669843907
343.3570349268444
342.7797035960014
340.1109318071725
337.7091139135154
336.0209312645865
333.1136676124225
328.4402166608717
321.9274239488188
314.6858133422894
309.9837741915586
313.8492491914413
317.4940599293883
317.9864844789237
318.9450129750042
323.1845962131134
327.8330782173253
325.6151240649434
308.6377699377624
350.2727057946938
348.8084940441385
345.3375270914682
341.6058325829127
337.9643077946409
332.4062001100361
327.4156379863454
320.567790157793
311.1455825023928
299.8451608822327
291.2228988739646
301.5441346380601
308.8162398851497
308.4748586019136
308.370787268133
313.5113724679496
319.9133278825313
318.8919046064773
299.0942407009474
273.0329469222487
273.0334039560805
273.0339561673307
273.0344845727874
273.0349953392302
273.0354986793058
273.0359631129495
273.0363383814424
273.036563161859
273.0365488985754
273.0361868364027
273.0353540421762
273.0339212523337
273.031786730288
273.0289165496981
273.0253085506865
273.0219647582876
273.0186822131146
273.0153274706788
273.011900016042
273.0085762350462
273.0058483389247
273.006169375498
273.0622899023998
273.062976213092
273.064008649675
273.06498085883
273.0659719898322
273.0670380146291
273.0681028636792
273.0690463655157
273.0697705755423
273.0701236359815
273.0699378552227
273.0690299586357
273.067184954595
273.0642197046851
273.0601179369066
273.0548386606062
273.0489840258256
273.0429833060823
273.0367069772471
273.0300790312998
273.023314198688
273.0170718517308
273.0129937343938
273.09822932602
273.0992177220177
273.1009757812587
273.1024844736774
273.104068505
273.1058936823218
273.1077915884571
273.1094883114877
273.1108324617122
273.1115596532554
273.1114764830456
273.1104341175636
273.1082173312909
273.104604241995
273.0996311056514
273.093783037706
273.0865783415076
273.0792464683817
273.071443231009
273.0627072204629
273.0528686981719
273.042423304905
273.032689123795
273.1572384205594
273.1581568939035
273.1622992751822
273.1661471957637
273.1707831612705
273.1765139418958
273.1828021418904
273.1888283853697
273.1935623806004
273.1954230164272
273.1935084354506
273.1875578107287
273.1778909436891
273.1650523504069
273.1506423291382
273.1375125451423
273.1265042075951
273.1170861709867
273.1109546462813
273.1058287409373
273.0983188708315
273.0874081451603
273.0741011496039
290.2694401018434
290.6182679032348
291.3226692955343
291.9815642975141
292.780811173029
293.6736024235364
294.5320181829114
295.2846571168068
295.7100410177386
295.5428314836623
294.7783628195829
293.5368374510394
291.8765916052533
289.5991532305829
286.3707369546964
282.0349409719323
277.8759143316839
273.4528539998536
273.1633165585251
273.1288098123119
273.1223623311375
273.1206692728518
273.1171935103434
315.1788464985987
316.5466338727238
317.6862920421167
318.6030966695278
319.702262934162
320.9195092573915
322.0570836304028
322.9107685586542
323.3202711343579
323.1516013822309
322.389951111658
321.1079849729497
319.1859466806079
316.1202904486772
311.2235667855637
304.0886676326465
296.0983416147822
292.9855826083223
290.0482939741409
287.7629423930734
282.8762560921029
273.578359371271
273.2695419904049
330.9087712131201
332.5447598727451
333.5098299449357
334.3337783721444
335.2401413101489
336.1669156716437
336.9440527723521
337.4451382963498
337.5893313442775
337.3529523148631
336.7326969846398
335.7674068924199
334.3670809901156
332.1291265696224
328.3495857186385
322.7226466829059
315.4666147566846
310.8390159786687
306.4445811998357
303.1629923899915
300.9682029578927
301.9653623725276
298.822917960699
339.2608532597347
340.3605850975463
340.9156608945302
341.4098827539019
341.8984965446604
342.3219611842871
342.5872038400901
342.618413834118
342.3856086533685
341.9071129443149
341.1967334521442
340.3107739994609
339.2169643291127
337.8063752200669
335.7952633869971
332.8242947193335
328.9369711333999
324.7776287774473
321.1604345768008
318.3957083575846
316.9546618633656
317.8334558774908
318.1504159132526
342.9138052882469
343.4290536839067
343.654460019761
343.8375697493618
343.9929631887988
344.0680331365061
343.990913193157
343.7027095681702
343.188305046637
342.4840118141111
341.6038698259253
340.6094188855561
339.4982352312908
338.2816525672776
336.9290736308156
335.3655527950756
333.5921448191451
331.7967508104558
330.2205556129744
329.2895817519654
329.0815199832538
329.784600647066
330.9943372571212
344.1734228125558
344.3165868164021
344.3751166356852
344.4109651723641
344.4123184261918
344.3313145566996
344.0943074522412
343.6428871754309
342.9753983494086
342.1427192698207
341.1532027332627
340.0589443889356
338.763902599134
337.3531299729904
336.0096260298982
334.8414246100173
333.8958745920332
333.3267450251369
333.321120814596
334.0111523894281
335.2492876557399
336.9329141288113
338.6810065780502
344.4579581075087
344.4690059030389
344.466630271238
344.4531222382971
344.4074343894821
344.2771357702235
343.9844490098625
343.4804164305143
342.7902002285614
341.9795884936038
341.0506541492979
339.9885605681754
338.6287718158566
337.2825546128238
336.4209973462742
335.9539874469223
336.0037872388035
336.8323872832274
338.2708198754511
339.9359695978974
341.3651649639653
342.4272457410853
343.153447357275
344.4594296478285
344.4447584606547
344.4354998887238
344.4179509471277
344.3682253056759
344.2318936267928
343.9390094059461
343.4689674574313
342.8832170388945
342.2589749781574
341.5901247354238
340.8229298508
339.919575691995
339.4252039950043
339.7239692068691
340.2488251643657
341.3035665416353
342.4866417303457
343.3294180093191
343.8454251695854
344.1280194315685
344.2689400005797
344.3098576584085
344.4258043081357
344.4176778291346
344.4126455793535
344.3999026852015
344.3554579900332
344.231014412072
343.9810527183034
343.6224586758526
343.2419229260382
342.9155991564729
342.6434739458278
342.4125077305746
342.3453105993721
342.7873343557639
343.6299018570455
344.0908488955198
344.3757280934349
344.4722301837378
344.4701272521206
344.4448966227027
344.4192680971643
344.3950340146347
344.3464922454005
344.4099505155883
344.4083269742618
344.4068846546621
344.3982547242371
344.3628058482992
344.2676202336614
344.0958835677923
343.8871992170154
343.724262028415
343.6661108111642
343.7174048970314
343.8718845961903
344.1564658428136
344.5301759738798
344.7443662202691
344.5744111004221
344.4705412163834
344.4213243813993
344.4022623430509
344.3968540960639
344.3918758357305
344.3774243395441
344.3286063651502
344.4075748605949
344.4083846380099
344.4081267707443
344.4028754239169
344.3805247926634
344.3246383833419
344.2346012428629
344.1453762352482
344.1120365377514
344.1647754529123
344.2859768165089
344.4287610011617
344.5332845995882
344.5295366559959
344.4259854838752
344.3721325739747
344.3872216291141
344.4001684320386
344.4054510512373
344.4054853770442
344.398479283343
344.3777676669431
344.3222812707291
344.4093754948311
344.4101060156165
344.4101995477796
344.4080864205695
344.3987487919578
344.3759398863377
344.3411284464657
344.3116290503623
344.3121423221076
344.3506089458565
344.4045569470449
344.4368655175379
344.4274724548387
344.3963863389893
344.3889553391251
344.4111111546301
344.4143452957239
344.4128237188427
344.4105439167746
344.4071341383518
344.3983819483595
344.375502642706
344.3188157649329
344.4107147821172
344.410949444475
344.4111515466794
344.411225684473
344.4101018325998
344.4055116550198
344.3965264386273
344.3876626205201
344.3873016828907
344.3983118500385
344.4124041755437
344.4187350429511
344.4172051477968
344.4161483637435
344.4157606616711
344.4104740696883
344.411117674513
344.4107244962527
344.4098411902016
344.407116335918
344.398788335881
344.376239747358
344.3213557110597
344.4109170641074
344.4108912001959
344.4111097770871
344.4119083756275
344.4135927377296
344.4155071129346
344.4161902693014
344.4152936906777
344.4147286866116
344.4164043222782
344.4191204660679
344.4195145709311
344.4161368641645
344.4112741561342
344.4091798084069
344.4112054784255
344.411482609422
344.4109916507547
344.4101353615834
344.4075924124295
344.3999944392009
344.3794558113325
344.3292239613343
344.4105960307563
344.4105779833978
344.4107532963949
344.4113865767766
344.4129650969136
344.4155845386784
344.4184659190078
344.420374286552
344.42070155907
344.4197335350431
344.4177852839911
344.4149637479011
344.4121446107085
344.4108517307578
344.4111217276685
344.4112924322196
344.4112364025052
344.4109202994277
344.4102412373159
344.4081210262091
344.4018356733678
344.3845913811459
344.3416582046043
344.4103491698716
344.4103977760729
344.4105136234039
344.4107937056777
344.4115192967554
344.4129484537134
344.4149092499558
344.4166128733093
344.4171367370685
344.4161912520386
344.4143283465189
344.4124670899786
344.4113051707491
344.4109742350605
344.4110954275538
344.4112224149251
344.4111139852955
344.4108990583017
344.4103728598179
344.408733842345
344.4038656830826
344.3905156046738
344.3568857573367
344.4102994095281
344.4103635772435
344.4104375000484
344.4105147564098
344.4106758649577
344.4110677496914
344.4117532506976
344.4125213203458
344.4129404124077
344.4127282734521
344.4120526501176
344.4113830869545
344.4110611016845
344.4110620701572
344.4111342671513
344.4111053810872
344.4110103104302
344.410862789389
344.4104899373741
344.4093385011023
344.4059008887652
344.3963494660626
344.3719509182101
344.4103054292979
344.4103483760338
344.4104042577571
344.4104370360347
344.4104504877616
344.4104823010055
344.4105918783123
344.4108003012215
344.4110308013265
344.4111575278056
344.4111412530125
344.4110725496906
344.4110496878058
344.4110642938417
344.4110505102491
344.4109915330225
344.4109129331845
344.4108081050985
344.4105705657421
344.409864301966
344.4077346042542
344.4017081986863
344.3859929170422
344.410261922208
344.4102888113396
344.4103405879546
344.4103846632776
344.4104210820586
344.4104540439861
344.4104941080411
344.4105616276192
344.410669553192
344.4108003508489
344.410914821603
344.4109855130112
344.4110093610174
344.4109932038415
344.4109456941047
344.4108808221641
344.41081145852
344.4107313348424
344.4105868696354
344.4101948576568
344.4090178446037
344.4056294815797
344.3965963031662
344.4101851284639
344.4102097026453
344.4102602541137
344.4103105946041
344.4103655969467
344.4104332537977
344.4105139784745
344.4106024158462
344.4106947571523
344.4107867142871
344.4108655896095
344.4109131871493
344.4109193566822
344.4108888678531
344.4108350001569
344.4107706016869
344.4107045203297
344.4106376784281
344.4105472602445
344.4103432515865
344.4097540783598
344.4080404937263
344.4033728797359
344.41012053655
344.4101429527215
344.410189190781
344.4102358337856
344.410285697991
344.4103493137608
344.4104331910352
344.4105320727447
344.4106317396294
344.4107173003063
344.410778134793
344.4108081487594
344.4108056738738
344.4107742036608
344.410721649216
344.4106581104605
344.4105934800232
344.4105332359114
344.4104694748129
344.4103617206571
344.4100850624993
344.4092905921688
344.4070897555432
344.4100674554562
344.4100831142077
344.4101224517503
344.4101631156198
344.4102054551383
344.410257666188
344.4103275852799
344.4104145495369
344.4105079214239
344.4105922369585
344.410653939991
344.4106852998664
344.4106847367647
344.4106555508533
344.4106048795139
344.4105427350352
344.4104797384072
344.4104229045918
344.4103705021089
344.4103049718225
344.410172179976
344.4098188090574
344.4088474951679
344.4100075790221
344.4100174916896
344.4100504633864
344.410085741176
344.410122218705
344.4101660045205
344.4102246003303
344.4102995244731
344.4103834515269
344.4104630547147
344.4105244886569
344.4105580437005
344.4105601873811
344.4105333673989
344.4104848146349
344.4104248365069
344.4103640459971
344.4103095244552
344.4102616193289
344.4102120556982
344.4101369668085
344.4099702333583
344.4095424822951
344.409944694007
344.4099509521119
344.4099786964277
344.4100095030418
344.410041149733
344.410078022371
344.4101270382024
344.410190995786
344.4102649954736
344.4103377650139
344.4103960770533
344.4104294483959
344.4104330558307
344.4104084027337
344.4103623414867
344.4103050336178
344.4102468188642
344.4101944440554
344.4101486258904
344.4101041994835
344.4100487025167
344.409951139543
344.4097390897572
344.4098850697997
344.4098875621811
344.4099100990945
344.4099358924836
344.4099619801904
344.4099914767561
344.4100309479529
344.4100842866338
344.410148488447
344.410213950052
344.4102681902672
344.4103004266274
344.4103049255768
344.4102822536015
344.4102386765803
344.4101840560782
344.4101284529395
344.410078246651
344.4100339620553
344.4099910925165
344.4099407408958
344.4098647908991
344.4097293596027
344.4098232897191
344.4098232367929
344.4098415581016
344.4098630549471
344.4098842509252
344.4099071426849
344.4099377553229
344.409980790457
344.4100350796798
344.4100928265731
344.4101424401934
344.4101729585756
344.4101778077671
344.4101566530936
344.410115144147
344.4100628160376
344.4100094986313
344.4099613232691
344.4099185381293
344.4098764347036
344.4098266806562
344.4097552629659
344.4096430361951
344.4097617556069
344.409760072357
344.4097750839064
344.4097929052281
344.4098096552237
344.4098264452497
344.4098488351065
344.4098821447923
344.4099267604169
344.4099765655963
344.4100209707894
344.4100490399269
344.4100535142037
344.4100331949106
344.4099930736742
344.4099423344903
344.409890662526
344.4098441107876
344.4098027665815
344.4097615065135
344.409711556632
344.4096399495426
344.409533509064
344.409699810075
344.4096974469247
344.409710140834
344.4097250781072
344.4097380553176
344.409749482604
344.409764483037
344.4097888375535
344.4098242629083
344.4098661904824
344.4099050563129
344.409930079544
344.4099334640441
344.4099132100889
344.4098736485699
344.4098236130981
344.4097727288043
344.4097271475277
344.4096869696177
344.4096467017761
344.4095968562493
344.409524498579
344.4094193383117
344.4096376032981
344.4096354508461
344.4096467789416
344.4096596429409
344.4096695537182
344.4096763590671
344.4096848106365
344.4097010382293
344.4097278882882
344.4097621856245
344.409795365189
344.4098168951041
344.4098185519389
344.4097976111024
344.4097577558188
344.4097074789701
344.4096564238269
344.4096109977422
344.4095715045995
344.4095322242284
344.409482985028
344.4094106200963
344.4093066024748
344.4095751331693
344.4095739603093
344.4095847670895
344.4095963077111
344.4096038259019
344.4096067299095
344.4096094568092
344.4096184059403
344.4096373776192
344.4096644296453
344.4096919468967
344.409709689075
344.4097091036888
344.4096868058217
344.4096458622823
344.4095944501963
344.4095422834509
344.409496147518
344.4094567208137
344.4094182429683
344.4093699834931
344.4092985080433
344.4091966116216
344.4095124231719
344.4095128511131
344.4095238022159
344.4095346230745
344.4095403194947
344.4095399529575
344.4095377114925
344.4095402130892
344.4095520460608
344.4095723397152
344.4095943396377
344.4096081210465
344.4096048799292
344.4095806564551
344.4095379511759
344.409484642534
344.409430547099
344.4093828987644
344.4093428881525
344.4093049107165
344.4092578766359
344.4091881432929
344.4090895103025
344.4094495124205
344.409451955897
344.4094634895508
344.4094739951506
344.409478266823
344.4094751228158
344.4094685714729
344.4094654060384
344.4094708555969
344.4094849428213
344.4095016591776
344.4095113865866
344.4095051528057
344.4094785329995
344.4094335337022
344.4093777626305
344.4093211333802
344.40927134468
344.4092301772032
344.4091923421032
344.4091465644864
344.4090790831623
344.4089845315106
344.409386442907
344.409391080647
344.4094033512085
344.4094136817601
344.4094167165856
344.40941112402
344.4094007949785
344.4093926645995
344.4093924663965
344.4094009169578
344.4094126139137
344.4094182277667
344.4094087048421
344.4093792930098
344.409331617933
344.4092730453318
344.409213551037
344.4091612415538
344.4091185001359
344.4090804680408
344.4090358856232
344.4089709613245
344.4088809183563
344.4093232378673
344.4093299372075
344.4093427770857
344.4093527837045
344.4093545409914
344.4093466634709
344.4093329881821
344.4093205468798
344.4093154128131
344.4093187975121
344.4093257439983
344.4093271782579
344.4093140760056
344.4092815393849
344.4092309646763
344.4091695238704
344.4091071777995
344.4090523086459
344.4090078028009
344.4089692587896
344.4089255420338
344.4088629537108
344.4087772465707
344.4092598008182
344.409268067336
344.409280924775
344.4092901326297
344.4092903555585
344.4092802598825
344.4092636484662
344.4092475546719
344.4092381846356
344.4092370008818
344.4092393396657
344.4092363932162
344.4092193348971
344.4091833710912
344.4091298586275
344.4090658058149
344.409001012617
344.4089439039204
344.40889767832
344.4088583526337
344.4088150585025
344.4087542859741
344.4086721622755
344.4091955930764
344.4092045640707
344.4092164478096
344.4092240433362
344.4092223294157
344.4092101400772
344.4091911767921
344.4091722349509
344.4091593213719
344.4091538821689
344.4091514702225
344.4091437028709
344.4091222721678
344.4090828016527
344.4090267779497
344.4089609721397
344.4088947359217
344.4088361425347
344.4087883900431
344.4087478103754
344.4087039145764
344.4086436050976
344.4085634600766
344.4091288264317
344.4091374670332
344.4091468747678
344.4091516782599
344.4091476348231
344.4091338697668
344.4091137111911
344.4090931194946
344.4090772860991
344.4090673379322
344.4090592447703
344.4090456574687
344.4090194939448
344.4089772423576
344.4089204698428
344.4088551834632
344.4087895075839
344.408730476643
344.4086809653304
344.408637763953
344.408591222632
344.408529033085
344.4084480820675
344.4090559679767
344.4090627916482
344.4090677124302
344.4090683531788
344.4090620372075
344.4090483796026
344.4090296555082
344.4090097093567
344.4089917292255
344.4089761828838
344.4089603148618
344.4089394773722
344.4089094061549
344.4088680710056
344.4088163745036
344.4087577610095
344.408697094511
344.4086389974719
344.4085857986547
344.4085355601323
344.4084807147009
344.4084104686577
344.408321936879
273.0065305998733
273.0070045496996
273.0082850592311
273.0274156825799
273.0119238403744
273.0113370644167
273.011224373021
273.0159804933368
273.0290764503299
273.0263239957649
273.0241813561428
273.0235408769306
273.0682305360891
273.0628519086725
273.0579663776491
273.0537851866642
273.1156280656356
273.1133067953067
273.1102605639139
273.1066311690324
273.2338072639114
273.2076879933878
273.1920490723809
273.1885213213958
297.0120111172978
295.266445116134
294.9746822671008
277.0750118388857
317.9855996744561
317.4890306354553
317.1655054288474
315.087553049222
331.5218021576162
331.9593686347485
332.3610175825864
332.5746344607541
339.3861130470787
339.9699706574932
340.4784050791583
340.8966735181107
343.4030423104104
343.5879196685012
343.7265185984189
343.8368915739766
344.3130442774667
344.3054417605515
344.2796180267488
344.2595368278097
344.3204408526411
344.2864928123611
344.2285040521463
344.1708439987796
344.295759537562
344.2427911092151
344.1521186310093
344.0400757260208
344.2747075908744
344.1937287301134
344.0655464200332
343.8915476838745
344.2529359586976
344.1466552282157
343.9907818003988
343.7705829992399
344.2383164497324
344.119704391903
343.9532809211289
343.7139967456659
344.2376858798827
344.1231324567238
343.9625453220746
343.7313485227222
344.2539147109428
344.1550607025728
344.0128890487477
343.8106569568815
344.2835901111256
344.2049237857237
344.089602040217
343.9275827109373
344.3179904103893
344.259654955246
344.1741776982064
344.0538135015402
344.3505968309164
344.3119569268649
344.2549972340834
344.1742195021553
344.3758041670786
344.3527866287413
344.3184742778241
344.2692285008854
344.3923771433898
344.3800078656378
344.3612919522234
344.3340059411723
344.4017837634585
344.3957216910065
344.3863840807474
344.3725159775433
344.4064802491779
344.4037667695466
344.3995083573683
344.3930542926798
344.4085248522117
344.407395695208
344.4055952100496
344.4028120087432
344.4092842681162
344.4088383373648
344.4081237608476
344.4070021175258
344.4094890197574
344.4093126073353
344.4090377874542
344.4086070476922
344.4094769620249
344.4093970586239
344.4092845062123
344.4091168667565
344.4093917702402
344.4093431256189
344.409284904435
344.4092086919578
344.4092863277652
344.4092465160219
344.4092038108076
344.4091550072911
344.4091785839502
344.4091407869141
344.4091012004379
344.4090581803484
344.4090738228631
344.4090367662367
344.4089972307821
344.4089539889583
344.4089728342423
344.4089367452197
344.408897311877
344.4088532186147
344.4088749739024
344.4088405351835
344.4088019564157
344.4087579398661
344.408778731846
344.4087464290591
344.4087095977617
344.4086669307598
344.4086822728586
344.4086523858051
344.4086177800808
344.4085773733058
344.4085831979722
344.4085555109129
344.408523198993
344.408485408043
344.4084786018843
344.408452485558
344.4084218997662
344.4083863202957
344.4083638613598
344.4083379665636
344.4083078724533
344.4082735918386
344.4082309849859
344.4082024552018
344.4081711616404
344.4081366404576
273.6005124247533
313.6162871151291
306.2213646546247
300.2416979869304
304.2915186431309
313.4760349792966
314.6842630353395
307.7587249578683
294.2443950998099
282.9052706928405
274.5839276124823
285.851872309053
302.4205184939858
299.6243517423489
296.7613414085411
301.8211838492018
310.2256717035382
312.0968987567439
291.1439268267061
273.0987836616026
273.3337561871929
273.3069736687357
273.2130752824878
273.2336089083691
273.4390723733286
275.6104097739056
280.1114928564353
273.3182534423966
273.1946382313909
273.1793932610594
273.181137859468
273.1932059490084
273.2781339279615
273.9022001619019
274.5129930321132
288.5928013439309
298.322251943533
280.3135550706475
273.0541759895204
273.1063599496032
273.1175621847665
273.1179587140326
273.1273239124279
273.1441369421239
273.1526001256256
273.1264859328357
273.124597907519
273.1246635742459
273.1261364363489
273.1310769031348
273.1387142202967
273.1516859134925
273.1693753742969
273.208572527374
273.3389785866079
274.7953461465725
275.1084574172137
273.056948963398
273.0711873663582
273.0764742928792
273.0780365136523
273.0825888606394
273.0889895100723
273.0930341785137
273.0915057513682
273.0919426303076
273.0940794390633
273.0980980917353
273.1046401118148
273.1139828100287
273.127298003174
273.1462548457826
273.1739180514929
273.210484567746
273.2923104060908
273.3437731142946
273.0997389850509
273.0969543185354
273.0955629859964
273.0953020989924
273.0964918321454
273.0980351653641
273.0989993595093
273.0990586984566
273.0993835914838
273.1006047724304
273.1031882000209
273.1076010956298
273.1143821641858
273.1246088659564
273.1400113959725
273.1635106502889
273.1980075526694
273.2539202351874
273.3358722669214
273.1781843803344
273.1653774640744
273.1551272130329
273.1462579564152
273.1378276592844
273.1298627918746
273.1230338128734
273.1174320491065
273.1131388239929
273.1106704144955
273.1106820129374
273.1140008346861
273.1215415694033
273.1314994941221
273.1451393622531
273.1662825836412
273.1981480634137
273.2531223565828
273.3383108937574
273.9916301895425
273.605540076736
273.5043042431617
273.4707312248753
273.4779173538873
273.4891659066244
273.5003395361896
273.5309228226895
273.5685540777374
273.5690035428531
273.3625407624172
273.190924283809
273.1465512554151
273.1525481314922
273.1676741960371
273.1865231395691
273.2195204441885
273.2711069371153
273.3483554160439
312.4429791244636
310.4215674972181
310.1707984624727
310.8765131489289
311.6728820999409
311.7394539442275
310.8041219910012
308.3691560243998
304.3975057618072
299.4771429631983
292.6486508069461
288.7450165560372
279.3532095347379
273.3127383105024
273.2149728507552
273.231508905346
273.2629807930453
273.3188845211387
273.3825835601774
333.1519689289528
333.8814415677755
334.5972581545113
335.0742997021429