/*--------------------------------*- C++ -*----------------------------------*\
| =========                 |                                                 |
| \\      /  F ield         | OpenFOAM: The Open Source CFD Toolbox           |
|  \\    /   O peration     | Version:  2206                                  |
|   \\  /    A nd           | Website:  www.openfoam.com                      |
|    \\/     M anipulation  |                                                 |
\*---------------------------------------------------------------------------*/
FoamFile
{
    version     2.0;
    format      ascii;
    arch        "LSB;label=32;scalar=64";
    class       volScalarField;
    location    "0.4";
    object      T.water;
}
// * * * * * * * * * * * * * * * * * * * * * * * * * * * * * * * * * * * * * //

dimensions      [0 0 0 1 0 0 0];

internalField   nonuniform List<scalar> 
2268
(
272.9999508237055
272.9999502000077
272.999950060919
272.9999498930308
272.9999497127117
272.9999495740844
272.9999495040909
272.9999495217623
272.9999496517681
272.9999499286034
272.9999503993566
272.9999511284876
272.999952207742
272.9999537791997
272.9999560793895
272.9999589652429
272.9999632408692
272.9999714585969
272.9999911976581
273.0000470904693
273.0002354311434
273.0010901323088
273.0084915333283
272.9999376681882
272.9999381032119
272.9999386851972
272.9999392034874
272.999939459505
272.999939371686
272.9999389235493
272.9999380872187
272.9999368154019
272.9999350634913
272.9999328225094
272.9999301662712
272.9999273223413
272.9999247705382
272.9999233720457
272.9999249565884
272.99993062995
272.9999434872156
272.9999719998027
273.0000411897071
273.0002433369527
273.0010844573914
273.0082201586713
273.0000843751563
273.0000901672354
273.0000951405539
273.0000994957882
273.0001022925174
273.0001030527241
273.0001015362799
273.0000974007988
273.0000901360954
273.0000791340696
273.0000638226477
273.0000438781814
273.0000195506952
272.9999920859605
272.999964156002
272.999945036416
272.9999373220947
272.9999440868521
272.9999741970626
273.0000523277957
273.0002654158644
273.0010874911939
273.0079068110935
273.000688914308
273.0007112371742
273.0007309211807
273.0007474470043
273.0007586623152
273.0007634763315
273.0007609902592
273.0007497956684
273.0007278206202
273.0006924613922
273.0006409278652
273.0005708753518
273.0004814255499
273.0003745330353
273.000256413868
273.0001562676476
273.0000847373424
273.0000440509094
273.0000429465099
273.0001050478079
273.0003103071806
273.0010958481847
273.0075422020473
273.0022832431121
273.0023430625987
273.0023979299749
273.0024432275748
273.0024759657425
273.002494469472
273.0024963362799
273.0024775719929
273.0024322866951
273.0023528011691
273.0022303021746
273.0020562610046
273.0018248427659
273.0015362684823
273.001200341084
273.000883608091
273.0006256392072
273.0004284167709
273.0003026697236
273.0002734093186
273.0004143301968
273.0011212430443
273.0071246837959
273.0056058361102
273.0057321754999
273.005853165506
273.0059541110582
273.0060327889233
273.0060872952312
273.0061123238787
273.0060988849901
273.006033659175
273.0058987472279
273.0056726690898
273.0053329594346
273.0048607243847
273.0042474183639
273.0035014807842
273.0027348808782
273.0020602225712
273.001483258456
273.0010264184214
273.0007289463829
273.0006686041041
273.0012008798214
273.0066603235059
273.0114581149191
273.0116794636665
273.0119042335195
273.0120983144997
273.0122622245294
273.0123945855981
273.0124850556591
273.0125163940187
273.0124632176196
273.0122905299123
273.0119551219222
273.0114096123582
273.0106095325729
273.009525166119
273.0081522355886
273.0066248634814
273.0051949933027
273.0038751260938
273.0027189608884
273.0018117108494
273.0012680882915
273.0014231747805
273.0061732163575
273.0204818534319
273.0208157082068
273.0211843972241
273.0215186234665
273.0218229746118
273.0220985460632
273.0223267427269
273.0224776623368
273.0225092486543
273.0223621949428
273.0219624126288
273.0212263957048
273.0200699881085
273.0184274180586
273.0162661820179
273.0136693938746
273.011100780488
273.0085707098729
273.0061817695378
273.0041143309105
273.0025872336955
273.001977527638
273.0057315323108
344.4240090628636
344.4234537009594
344.4222418717792
344.4206343823053
344.4192375723744
344.4183203327551
344.4174558349471
344.4159560297022
344.4134237790178
344.4099298922088
344.4058473394712
344.4013188708825
344.398042512837
344.3957247623799
344.396288175601
344.4020534192377
344.4077130476425
344.3996552271201
344.3607349943185
344.4232336855371
344.420482527827
344.4130540353165
344.4025867207385
344.3925066706933
344.3842912163508
344.3747780257033
344.3584461973949
344.3313677807565
344.2940388441004
344.2519756995979
344.2097152674761
344.186110703253
344.1699902575751
344.1794350630532
344.234607248864
344.2874574404021
344.2193248871711
343.8910220291511
344.4252322529587
344.4086220854541
344.3740060526291
344.3230879889844
344.2710165944839
344.2226864607512
344.1611885200666
344.0586591571778
343.8956489749832
343.6809086697913
343.4612877618459
343.2805483453771
343.2218967550962
343.181142235335
343.2490292241353
343.5177722640982
343.7742813831593
343.4948412336763
342.1017883486762
344.3954232499462
344.3552594317642
344.2377580655213
344.067898322184
343.8835306267682
343.6931603316962
343.4395022664005
343.0250031863009
342.3912722831021
341.5994464493635
340.880143724225
340.4497297272514
340.4739965912556
340.4561891901052
340.7150346165201
341.5400259932227
342.3294154568686
341.5683732825812
337.6780727266785
344.4314734248161
344.3529864754084
344.0145200676655
343.4796901743703
342.9337575613103
342.3994340730287
341.6525179181403
340.4519686742127
338.6852060730843
336.5964514920635
334.9458255086512
334.4684238305386
335.0073676418463
335.1595954944843
335.7809134034397
337.5805823640601
339.3329714430631
337.8314473971919
329.8790147748736
344.5765009426402
343.8455937598816
342.9340029226145
342.1620552148988
341.207108712133
339.9385850912489
338.2546896897235
335.6049466924796
331.8317227376667
327.5752652507533
324.6324254820055
325.1802728578507
326.8994419985336
327.337638687585
328.3325847289599
331.365855032436
334.448001946385
332.263127484179
319.5201415984508
343.0516698439794
343.3570349269869
342.7797035961796
340.1109318072202
337.7091139491434
336.0209312645865
333.1136676124243
328.44021666087
321.9274239488234
314.6858133422926
309.98377419156
313.8492491914412
317.4940599294115
317.9864844789469
318.9450129750522
323.1845962133529
327.8330782186429
325.6151240688482
308.6377699322338
350.2727057947952
348.8084940442641
345.337527117894
341.6058324560756
337.9643079718908
332.4062001100715
327.4156379863878
320.5677901577894
311.1455825023825
299.8451607638389
291.2228988739311
301.5441346380311
308.8162398851153
308.4748586018908
308.3707872680352
313.5113724678557
319.9133278831471
318.8919046080406
299.09424068473
273.0329469175371
273.0334039513457
273.0339561625689
273.0344845680374
273.0349953345231
273.0354986746702
273.0359631084189
273.0363383770628
273.0365631576831
273.0365488946616
273.0361868328092
273.0353540389603
273.0339212495463
273.0317867279779
273.0289165479127
273.0253085493711
273.0219647573491
273.0186822124881
273.0153274703057
273.0119000158732
273.0085762350317
273.0058483390308
273.0061693758029
273.062289895188
273.0629762058527
273.0640086423798
273.0649808515566
273.0659719826302
273.0670380075335
273.0681028567324
273.0690463587849
273.0697705691126
273.0701236299446
273.0699378496627
273.0690299536188
273.0671849501625
273.064219700873
273.0601179337952
273.0548386584391
273.0489840243049
273.0429833052406
273.036706976927
273.0300790313111
273.0233141988907
273.0170718520383
273.0129937347863
273.0982293175199
273.0992177135276
273.1009757725948
273.1024844649078
273.1040684961534
273.1058936734212
273.1077915795398
273.1094883026239
273.1108324530866
273.1115596451168
273.111476475652
273.1104341110987
273.1082173257902
273.1046042373615
273.0996311017758
273.0937830345991
273.08657833956
273.0792464676842
273.0714432313871
273.0627072215404
273.052868699572
273.042423306359
273.0326891251559
273.1572383672651
273.1581568421487
273.162299220107
273.1661471370541
273.1707830978488
273.1765138728178
273.1828020668536
273.1888283050245
273.1935622978879
273.1954229367985
273.1935083654385
273.1875577553453
273.1778909042593
273.1650523251255
273.1506423142085
273.1375125367916
273.1265042048183
273.1170861718581
273.1109546493631
273.1058287452378
273.0983188758074
273.0874081501996
273.074101154279
290.2694401003704
290.6182679016914
291.3226692939717
291.9815642959861
292.7808111715602
293.673602422137
294.5320181815972
295.2846571156073
295.7100410166571
295.5428314826893
294.7783628187276
293.5368374503207
291.8765916046814
289.5991532301539
286.3707369543952
282.0349409717614
277.8759143316213
273.452853819672
273.1633165540418
273.1288098189738
273.1223623406015
273.1206692832189
273.117193520555
315.1788464984805
316.5466338726362
317.6862920420611
318.6030966694981
319.702262934162
320.9195092574204
322.0570836304543
322.9107685587184
323.3202711344212
323.1516013822832
322.3899511116911
321.1079849729614
319.1859466805961
316.1202904486354
311.2235667854777
304.0886676325113
296.0983416146738
292.9855826082788
290.0482939957917
287.7629423930466
282.8762560917513
273.5783593712691
273.2695420002544
330.908771213203
332.5447598728384
333.5098299450302
334.3337783722365
335.240141310236
336.1669156717225
336.9440527724201
337.4451382964072
337.5893313443256
337.3529523149032
336.7326969846739
335.7674068924485
334.3670809901417
332.1291265696493
328.3495857186655
322.722646682914
315.4666147566618
310.8390159786373
306.4445811998276
303.1629923899901
300.9682029578218
301.9653623724955
298.82291796055
339.2608532597621
340.3605850975702
340.9156608945506
341.4098827539193
341.8984965446733
342.3219611842958
342.5872038400958
342.6184138341218
342.38560865337
341.9071129443159
341.1967334521443
340.3107739994611
339.2169643291133
337.806375220069
335.7952633870021
332.8242947193423
328.9369711334049
324.7776287774457
321.1604345767976
318.3957083575861
316.9546618633726
317.8334558774987
318.1504159132687
342.9138052882493
343.4290536839079
343.654460019761
343.8375697493623
343.9929631887983
344.0680331365054
343.9909130703775
343.7027094566116
343.1883049487741
342.4840117204702
341.6038697242203
340.6094187714034
339.4982351095449
338.2816525672767
336.9290736308149
335.3655527950752
333.5921448191448
331.7967508104545
330.2205556129732
329.2895818792621
329.0815199832592
329.7846006470786
330.9943372571479
344.1734228125546
344.3165866985162
344.3751165268729
344.4109650751929
344.4123183437455
344.3313144907051
344.0943074011937
343.6428871306539
342.9753982942311
342.1427191905392
341.1532026264966
340.0589442661378
338.7639024675055
337.3531299729898
336.0096260298972
334.8414246100161
333.8958745920325
333.3267450251359
333.3211206882124
334.0111525113161
335.2492876557446
336.9329141288208
338.681006578062
344.4579580308339
344.4690058382311
344.4666302113949
344.4531221822164
344.4074343366336
344.2771357195866
343.9844489564732
343.4804163615676
342.7902001307301
341.9795883697362
341.0506541492974
339.9885605681746
338.6287718158558
337.2825546128229
336.4209973462741
335.9539874469223
336.0037872388032
336.832387283226
338.2708197536668
339.935969560399
341.3651650004731
342.4272458042285
343.1534473998287
344.4594295926019
344.4447584054408
344.4354998327794
344.4179508900752
344.3682252472882
344.2318935652366
343.9390093338554
343.4689673612378
342.8832169166695
342.2589749781558
341.5901247354233
340.8229298508001
339.919575691996
339.4252039950071
339.7239692068719
340.2488251643669
341.3035665416353
342.4866417303447
343.3294178880695
343.8454250747311
344.12801935521
344.2689399311665
344.3098575881803
344.4258042495645
344.4176777687545
344.4126455178631
344.3999026227332
344.3554579262692
344.2310143431612
343.9810526330962
343.622458564764
343.2419229260373
342.915599156472
342.6434739458275
342.4125077305753
342.345310599373
342.7873343557652
343.6299018570454
344.0908488955187
344.3757279893526
344.4722301045385
344.4701271835895
344.4448965565941
344.419268031181
344.3950339480976
344.346492175777
344.4099504524576
344.408326910239
344.4068845902723
344.3982546593872
344.3628057815612
344.2676201592669
344.0958834758042
343.8871991038716
343.7242620284141
343.6661108111635
343.7174048970306
343.8718845961897
344.1564658428126
344.5301758636356
344.7443661926487
344.5744110651186
344.4705411646983
344.421324321717
344.4022622801253
344.3968540320265
344.3918757713762
344.3774242741233
344.3286062956239
344.407574795707
344.4083845730223
344.408126705724
344.4028753584923
344.3805247248422
344.32463830801
344.2346011538035
344.145376131467
344.1120364250138
344.1647753384613
344.2859767076682
344.4287609097488
344.5332845421919
344.5295366261131
344.4259854390816
344.3721325081687
344.3872215624165
344.4001683667038
344.4054509867018
344.4054853129693
344.3984792191011
344.3777676012508
344.3222812003924
344.4093754298344
344.4101059507383
344.4101994829228
344.4080863553075
344.3987487247978
344.3759398143641
344.3411283668615
344.3116289634042
344.3121422323855
344.3506088606638
344.4045568733346
344.4368654567614
344.4274723985778
344.3963862759308
344.3889552701652
344.4111110894006
344.4143452316904
344.4128236550562
344.4105438529865
344.4071340745082
344.3983818840819
344.3755025767509
344.318815694059
344.4107147173749
344.4109493798168
344.4111514820209
344.4112256195941
344.410101766875
344.4055115873281
344.3965263678908
344.3876625469565
344.3873016087876
344.3983117786925
344.412404108676
344.4187349790379
344.4172050841194
344.41614829988
344.4157605982679
344.4104740054296
344.4111176104549
344.4107244322576
344.4098411262193
344.4071162719057
344.3987882714414
344.3762396812398
344.321355640054
344.4109169994815
344.4108911355807
344.4111097124676
344.4119083109765
344.4135926729584
344.4155070477963
344.4161902034177
344.415293623931
344.4147286196021
344.4164042561387
344.4191204015361
344.4195145076409
344.4161368010046
344.4112740921998
344.4091797437869
344.4112054140724
344.4114825452534
344.4109915866178
344.4101352974732
344.4075923482366
344.3999943746044
344.3794557451687
344.3292238906413
344.4105959660731
344.4105779187005
344.4107532317021
344.4113865121311
344.4129650323997
344.4155844743627
344.4184658548585
344.4203742224664
344.4207014950462
344.4197334712278
344.4177852204234
344.4149636842705
344.4121445466218
344.4108516662568
344.4111216631498
344.4112923678256
344.4112363381909
344.4109202351432
344.4102411730692
344.4081209619217
344.4018356086819
344.3845913150209
344.3416581346198
344.4103491050799
344.4103977112766
344.4105135586175
344.410793640935
344.4115192321323
344.4129483893187
344.4149091858732
344.4166128095155
344.4171366734199
344.4161911883398
344.4143282826016
344.4124670257496
344.411305106243
344.4109741704376
344.4110953629707
344.411222350425
344.4111139208347
344.4108989938711
344.4103727954248
344.4087337779481
344.4038656184774
344.3905155391324
344.3568856888569
344.4102993446561
344.4103635123768
344.4104374351899
344.4105146915699
344.4106758001637
344.4110676849968
344.4117531861646
344.4125212559888
344.4129403481524
344.4127282091604
344.4120525856756
344.411383022343
344.4110610369746
344.4110620054454
344.4111342024889
344.411105316466
344.4110102458324
344.410862724816
344.4104898728298
344.4093384365673
344.4059008241287
344.396349400899
344.371950851254
344.4103053643735
344.4103483111151
344.4104041928426
344.4104369711242
344.4104504228566
344.4104822361148
344.4105918134568
344.4108002364186
344.4110307365712
344.4111574630623
344.4111411882411
344.4110724848825
344.4110496229903
344.4110642290493
344.4110504454858
344.41099146828
344.4109128684558
344.4108080403857
344.4105705010485
344.4098642372863
344.4077345395419
344.4017081337316
344.3859928511421
344.4102618572303
344.4102887463636
344.4103405229814
344.4103845983054
344.4104210170867
344.4104539790117
344.4104940430656
344.4105615626476
344.4106694882322
344.4108002859047
344.4109147566747
344.4109854480967
344.4110092961178
344.4109931389584
344.4109456292356
344.4108807573031
344.4108113936668
344.4107312699953
344.4105868047967
344.4101947928273
344.4090177797719
344.4056294166671
344.396596237848
344.4101850634242
344.4102096376065
344.4102601890767
344.4103105295681
344.410365531913
344.410433188766
344.4105139134432
344.4106023508149
344.410694692124
344.4107866492667
344.4108655246008
344.4109131221537
344.4109192916965
344.4108888028744
344.4108349351823
344.4107705367145
344.410704455356
344.4106376134521
344.4105471952656
344.4103431866075
344.4097540133826
344.4080404287333
344.4033728146098
344.4101204714478
344.4101428876206
344.4101891256815
344.4102357686879
344.4102856328943
344.4103492486659
344.4104331259421
344.4105320076544
344.4106316745414
344.4107172352218
344.4107780697127
344.4108080836825
344.4108056087994
344.4107741385874
344.4107215841404
344.4106580453803
344.4105934149351
344.4105331708128
344.4104694097022
344.410361655535
344.41008499737
344.4092905270371
344.4070896903821
344.4100673902964
344.410083049049
344.4101223865919
344.4101630504616
344.4102053899804
344.4102576010299
344.4103275201215
344.4104144843785
344.4105078562655
344.4105921718003
344.4106538748322
344.410685234708
344.4106846716031
344.4106554856874
344.4106048143415
344.4105426698521
344.41047967321
344.4104228393781
344.4103704368748
344.4103049065674
344.4101721147024
344.4098187437727
344.408847429873
344.4100075138053
344.4100174264735
344.4100503981697
344.4100856759587
344.4101221534859
344.4101659392995
344.4102245351064
344.4102994592466
344.410383386298
344.4104629894833
344.4105244234219
344.4105579784607
344.4105601221361
344.4105333021457
344.4104847493703
344.4104247712261
344.4103639806968
344.4103094591323
344.4102615539795
344.4102119903205
344.4101369014022
344.4099701679286
344.4095424168472
344.4099446287341
344.4099508868394
344.4099786311545
344.4100094377668
344.4100410844557
344.4100779570897
344.4101269729164
344.4101909304958
344.4102649301779
344.4103376997124
344.4103960117448
344.4104293830797
344.4104329905052
344.4104083373966
344.4103622761333
344.4103049682446
344.4102467534667
344.4101943786301
344.4101485604335
344.4101041339924
344.4100486369897
344.4099510739833
344.4097390241651
344.4098850044746
344.4098874968556
344.4099100337673
344.4099358271536
344.4099619148571
344.4099914114174
344.4100308826084
344.4100842212819
344.4101484230868
344.4102138846832
344.4102681248894
344.4103003612383
344.4103048601754
344.4102821881839
344.4102386111442
344.4101839906181
344.4101283874506
344.4100781811303
344.4100338964979
344.4099910269211
344.4099406752588
344.4098647252227
344.409729293884
344.4098232243441
344.4098231714169
344.4098414927226
344.4098629895651
344.4098841855388
344.4099070772915
344.4099376899223
344.4099807250468
344.4100350142591
344.4100927611407
344.4101423747489
344.410172893117
344.4101777422936
344.4101565876018
344.4101150786315
344.4100627504951
344.4100094330573
344.4099612576591
344.4099184724797
344.4098763690118
344.40982661492
344.4097551971859
344.4096429703653
344.4097616901836
344.4097600069329
344.4097750184792
344.4097928397967
344.4098095897866
344.4098263798054
344.4098487696526
344.4098820793272
344.4099266949391
344.4099765001044
344.4100209052832
344.4100489744038
344.4100534486624
344.4100331293481
344.4099930080858
344.4099422688716
344.4098905968722
344.4098440450953
344.4098027008459
344.4097614407331
344.4097114908049
344.4096398836683
344.409533443136
344.4096997446075
344.4096973814561
344.4097100753615
344.4097250126295
344.4097379898337
344.4097494171116
344.4097644175336
344.4097887720376
344.4098241973772
344.4098661249357
344.4099049907489
344.4099300139609
344.40993339844
344.4099131444615
344.4098735829143
344.4098235474093
344.4097726630776
344.4097270817594
344.409686903804
344.4096466359145
344.409596790339
344.4095244326198
344.4094192722957
344.4096375377894
344.4096353853353
344.4096467134274
344.4096595774209
344.4096694881908
344.4096762935303
344.4096847450875
344.4097009726668
344.4097278227092
344.4097621200273
344.4097952995722
344.4098168294666
344.4098184862773
344.4097975454148
344.409757690101
344.409707413217
344.4096563580333
344.4096109319042
344.4095714387136
344.4095321582925
344.4094829190423
344.4094105540602
344.4093065363797
344.4095750676227
344.4095738947611
344.4095847015359
344.409596242152
344.4096037603351
344.4096066643326
344.4096093912195
344.4096183403351
344.4096373119961
344.4096643640022
344.4096918812315
344.4097096233875
344.4097090379763
344.4096867400802
344.4096457965083
344.4095943843852
344.4095422175968
344.4094960816176
344.4094566548625
344.4094181769655
344.4093699174387
344.409298441936
344.4091965454547
344.4095123575916
344.4095127855301
344.4095237366279
344.4095345574806
344.4095402538923
344.4095398873445
344.4095376458656
344.4095401474455
344.4095519803981
344.4095722740306
344.4095942739299
344.4096080553139
344.4096048141696
344.4095805906654
344.4095378853525
344.4094845766704
344.4094304811908
344.409382832807
344.4093428221439
344.4093048446541
344.4092578105204
344.4091880771234
344.4090894440714
344.4094494468092
344.4094518902833
344.4094634239331
344.4094739295258
344.4094782011886
344.4094750571696
344.4094685058133
344.4094653403606
344.4094707898997
344.4094848771005
344.4095015934325
344.4095113208145
344.4095050870056
344.4094784671676
344.409433467835
344.4093776967226
344.4093210674251
344.4092712786745
344.4092301111435
344.4091922759879
344.4091464983159
344.4090790169366
344.4089844652219
344.4093863772694
344.4093910150071
344.4094032855633
344.4094136161082
344.4094166509241
344.409411058347
344.4094007292908
344.4093925988926
344.4093924006685
344.4094008512063
344.4094125481361
344.4094181619613
344.4094086390065
344.4093792271417
344.4093315520281
344.4092729793844
344.4092134850417
344.4091611755056
344.4091184340322
344.4090804018791
344.4090358194048
344.4089708950502
344.408880852017
344.4093231722072
344.409329871545
344.409342711418
344.4093527180294
344.4093544753062
344.4093465977742
344.4093329224701
344.4093204811489
344.4093153470599
344.4093187317338
344.4093256781931
344.4093271124243
344.4093140101415
344.4092814734871
344.4092308987401
344.4091694578904
344.4091071117699
344.4090522425623
344.4090077366599
344.4089691925894
344.408925475775
344.408862887394
344.4087771801875
344.4092597351399
344.4092680016554
344.4092808590891
344.4092900669365
344.4092902898553
344.4092801941666
344.4092635827346
344.4092474889209
344.4092381188623
344.4092369350831
344.4092392738389
344.4092363273607
344.4092192690095
344.4091833051688
344.4091297926658
344.4090657398087
344.4090009465597
344.4089438378077
344.4088976121485
344.4088582864015
344.4088149922119
344.4087542196226
344.4086720958567
344.4091955273843
344.4092044983755
344.4092163821093
344.4092239776282
344.4092222636987
344.4092100743471
344.409191111046
344.4091721691848
344.4091592555824
344.4091538163537
344.4091514043793
344.4091436369975
344.4091222062619
344.4090827357114
344.4090267119678
344.4089609061127
344.4088946698433
344.4088360763992
344.4087883238481
344.4087477441194
344.4087038482595
344.4086435387191
344.4085633936294
344.40912876073
344.4091374013289
344.4091468090583
344.4091516125426
344.4091475690961
344.4091338040267
344.4091136454345
344.4090930537183
344.4090772202995
344.4090672721063
344.4090591789161
344.4090455915835
344.4090194280267
344.4089771764025
344.4089204038468
344.4088551174208
344.4087894414895
344.4087304104922
344.4086808991198
344.40863769768
344.4085911562974
344.4085289666881
344.4084480156006
344.4090559022716
344.40906272594
344.4090676467169
344.409068287458
344.4090619714753
344.4090483138572
344.4090295897461
344.4090096435751
344.4089916634202
344.4089761170525
344.4089602490014
344.4089394114805
344.4089093402279
344.4088680050417
344.4088163084973
344.4087576949568
344.4086970284071
344.4086389313127
344.4085857324358
344.408535493851
344.4084806483568
344.4084104022499
344.4083218704006
273.0065306001984
273.0070045500606
273.0082850599294
273.0274156884885
273.0119238408008
273.0113370648752
273.0112243735659
273.0159804948795
273.0290764516598
273.0263239970736
273.0241813574241
273.0235408783095
273.0682305405791
273.0628519130065
273.0579663818231
273.0537851907178
273.1156280756681
273.113306805437
273.1102605740421
273.106631179002
273.2338072862102
273.207688017739
273.1920490959367
273.1885213451981
297.0120111170982
295.2664451158904
294.9746822666909
277.0750118382529
317.9855996744765
317.4890306354766
317.1655054288689
315.08755304922
331.5218021576531
331.9593686347972
332.361017582646
332.5746344608229
339.3861130470905
339.9699706575061
340.478405079171
340.8966735181238
343.4030423439629
343.5879196890383
343.7265186024217
343.8368915648153
344.3130442059698
344.3054416867848
344.2796179485175
344.2595367458716
344.320440780707
344.2864927366163
344.2285039694001
344.17084390808
344.2957594644203
344.2427910296157
344.1521185410945
344.0400756236618
344.2747075151935
344.1937286452956
344.0655463225467
343.8915475719332
344.2529358804987
344.1466551390551
343.9907816976241
343.7705828820868
344.2383163699322
344.1197043006936
343.9532808163705
343.7139966270618
344.2376858001604
344.1231323661865
343.9625452185231
343.7313484055063
344.2539146329441
344.1550606149918
344.0128889491707
343.8106568437563
344.2835900360728
344.2049237031356
344.0896019473332
343.9275826053157
344.3179903389634
344.2596548784862
344.1741776135491
344.0538134062999
344.3505967624059
344.3119568549607
344.2549971568324
344.1742194171673
344.3758041004567
344.3527865602409
344.3184742061605
344.2692284243112
344.3923770777219
344.3800077990825
344.3612918840595
344.334005870328
344.4017836981116
344.3957216252978
344.3863840143215
344.3725159098306
344.4064801838263
344.4037667040674
344.3995082916121
344.3930542263857
344.4085247867342
344.4073956296847
344.4055951444291
344.4028119429246
344.4092842024882
344.4088382717109
344.4081236951531
344.4070020517629
344.409488953992
344.4093125415421
344.4090377216332
344.4086069818431
344.4094768961408
344.4093969927066
344.4092844402662
344.4091168007889
344.4093917042532
344.4093430595959
344.4092848383793
344.4092086258789
344.4092862616876
344.4092464499067
344.4092037446583
344.4091549411153
344.4091785177934
344.4091407207181
344.4091011342071
344.4090581140891
344.4090737566331
344.4090366999679
344.4089971644796
344.4089539226253
344.4089727679479
344.4089366788864
344.4088972455091
344.4088531522171
344.4088749075501
344.4088404687924
344.4088018899899
344.40875787341
344.408778665442
344.4087463626154
344.4087095312832
344.4086668642501
344.4086822064104
344.4086523193171
344.4086177135564
344.4085773067487
344.4085831314871
344.4085554443869
344.4085231324288
344.4084853414438
344.408478535369
344.4084524190005
344.4084218331707
344.4083862536623
344.4083637948235
344.4083378999845
344.4083078058354
344.4082735251798
344.4082309184377
344.4082023886097
344.4081710950061
344.4081365737829
273.6005124247516
313.6162871117592
306.2213646490558
300.2416979815283
304.2915186405765
313.4760349788609
314.6842630348858
307.7587249564342
294.2443950971665
282.9052706911996
274.5839276124153
285.851872308723
302.4205184939498
299.6243517423001
296.7613414082974
301.8211838483551
310.2256717025282
312.0968987557719
291.1439268079699
273.0987836675519
273.3337561871903
273.3069736687298
273.2130751609096
273.2336088197433
273.4390723733248
275.6104097732969
280.1114928491569
273.3182534423819
273.1946381861082
273.1793932490209
273.1811378576613
273.1932059581881
273.2781338572898
273.9022001618637
274.5129930314311
288.5928013239502
298.3222519381158
280.313555060015
273.0541759898395
273.1063599353208
273.1175621429009
273.1179586811456
273.1273238843991
273.1441368906554
273.1526000450684
273.1264859026734
273.1245978800517
273.1246635579384
273.1261364248796
273.1310768977846
273.138714219577
273.1516859185658
273.1693753809525
273.2085725504979
273.338978586607
274.7953461171436
275.1084574151561
273.0569489658751
273.0711873596365
273.0764742775821
273.0780364973707
273.0825888451661
273.0889894902944
273.0930341563497
273.0915057361254
273.0919426189687
273.0940794320057
273.0980980883958
273.1046401118095
273.1139828129981
273.127298009689
273.1462548568913
273.1739180677559
273.2104845880346
273.2923103685648
273.3437731261349
273.0997389940395
273.0969543253864
273.095562991543
273.0953021043848
273.0964918373135
273.0980351693788
273.0989993621988
273.0990587008998
273.0993835939522
273.1006047752288
273.1031882034711
273.107601099952
273.1143821696165
273.1246088730742
273.1400114056962
273.1635106638731
273.1980075703013
273.2539202584036
273.335872290945
273.1781844000994
273.1653774792458
273.1551272258849
273.1462579667721
273.1378276666948
273.1298627967341
273.1230338162001
273.1174320516041
273.1131388259495
273.1106704165181
273.1106820159718
273.1140008397493
273.1215415765222
273.1314995021798
273.1451393717807
273.1662825956568
273.1981480785077
273.2531223756418
273.3383109175814
273.9916301894912
273.6055400767244
273.5043042431553
273.4707312248696
273.4779173538791
273.489165906612
273.5003395361695
273.5309228226512
273.5685540776705
273.5690035427899
273.3625407624093
273.1909243071404
273.1465512694106
273.1525481452388
273.1676742074234
273.1865231508795
273.2195204575452
273.2711069522522
273.3483554343663
312.4429791244037
310.4215674969981
310.170798462144
310.8765131485712
311.6728820996235
311.7394539439229
310.8041219906729
308.3691560240309
304.3975057614127
299.4771429627955
292.6486508066188
288.7450165556215
279.3532095347057
273.3127382812522
273.2149728673821
273.2315089179556
273.2629808044739
273.31888453355
273.3825835756957
333.1519689290551
333.8814415679557
334.597258154758
335.0742997024196