/*--------------------------------*- C++ -*----------------------------------*\
| =========                 |                                                 |
| \\      /  F ield         | OpenFOAM: The Open Source CFD Toolbox           |
|  \\    /   O peration     | Version:  2206                                  |
|   \\  /    A nd           | Website:  www.openfoam.com                      |
|    \\/     M anipulation  |                                                 |
\*---------------------------------------------------------------------------*/
FoamFile
{
    version     2.0;
    format      ascii;
    arch        "LSB;label=32;scalar=64";
    class       volVectorField;
    location    "0.4";
    object      U;
}
// * * * * * * * * * * * * * * * * * * * * * * * * * * * * * * * * * * * * * //

dimensions      [0 1 -1 0 0 0 0];

internalField   nonuniform List<vector> 
2268
(
(0.02628866908317427 -0.01164932914377021 0)
(0.05794074484945276 -0.01161742481082467 0)
(0.1002910746293866 -0.01138954049647115 0)
(0.1402799896438704 -0.01119183699455165 -1.447725435065499e-24)
(0.179114430222598 -0.01092172987843195 -2.871972596593778e-24)
(0.2169168826257116 -0.01053336363470327 -1.424012310140029e-24)
(0.2532928221227888 -0.01003914091500678 -1.400095111202456e-24)
(0.2877735676411449 -0.009439804235167571 -2.732273971827543e-24)
(0.319885504382192 -0.008721878784967788 -2.650313225000184e-24)
(0.3491142365168292 -0.007868281835911565 -1.277425339595555e-24)
(0.3748747346536412 -0.00686138178857441 0)
(0.39649995613352 -0.005682711838292578 0)
(0.4132346569149422 -0.004311892015702133 0)
(0.4242227414802906 -0.00272173224054189 0)
(0.4285194296982962 -0.00085710588708133 0)
(0.4250945403902379 0.001170483200508064 9.545525106161999e-25)
(0.4126579475231072 0.003606012344913578 9.669813220310288e-25)
(0.3897212950909925 0.006577527069655377 1.040269827472048e-24)
(0.3545273110790202 0.01026676949809597 2.346331177930246e-24)
(0.3049185262877579 0.01484769539415876 1.345628124918486e-24)
(0.2408674354513793 0.02019488427965268 0)
(0.1472240800641698 0.02671982387803175 0)
(0.07132800349845103 0.03195946395682456 0)
(0.02638661217184449 -0.02772276394245893 0)
(0.05873732110985887 -0.02770486139371364 0)
(0.1016062761689787 -0.0273862416849278 0)
(0.1420589139353226 -0.02704397121139719 -3.717634767652817e-24)
(0.1813778015078014 -0.02645410727958824 -7.358624076657148e-24)
(0.2196760274034875 -0.02554838493282839 -3.64420486325733e-24)
(0.2565541078627114 -0.02435144861402855 -3.58717539116926e-24)
(0.2915580453447858 -0.02285408034678962 -7.024845569852903e-24)
(0.3242262778504951 -0.02101529760408164 -6.852233529011884e-24)
(0.3540528446935803 -0.01878445568405696 -3.327893552383709e-24)
(0.3804627628679901 -0.01610719725287897 0)
(0.4028039327980166 -0.0129244994869228 0)
(0.4203456417698964 -0.009170497413563974 0)
(0.4322798420807674 -0.004767939780437577 0)
(0.437620140856679 0.0003754155643177739 0)
(0.4352705983094862 0.006321354150893136 2.722908983523631e-24)
(0.4239842670652347 0.01328577831322153 2.843886616082038e-24)
(0.4021571426496842 0.02147154985584085 3.182292360502455e-24)
(0.3678929151642011 0.03105650869122344 7.740812631284878e-24)
(0.3186562008579111 0.04206183151552711 5.025645674032313e-24)
(0.2539230082501737 0.0537530675180036 0)
(0.1573659832062899 0.06574430030182829 0)
(0.07628065680075737 0.0707764350562094 0)
(0.02596393705450676 -0.04822663283398729 0)
(0.05883516592884795 -0.04817340636347665 0)
(0.1018825750359255 -0.04771051000771159 0)
(0.1424530041441434 -0.04708922131832413 0)
(0.1819324243507374 -0.04604451203502296 0)
(0.2204024402993013 -0.04451600223433656 0)
(0.2574586773791993 -0.0425190006355228 0)
(0.2926629605402522 -0.04002414817878834 0)
(0.3255635953951088 -0.03696426503798793 0)
(0.3556577773569039 -0.03325798316981694 0)
(0.382371870522269 -0.02881759761046606 0)
(0.4050549788736436 -0.02354988601264529 0)
(0.4229764889092571 -0.01735532052300814 0)
(0.4353171612570509 -0.01012467140533866 0)
(0.4411758407009018 -0.001733870180292344 0)
(0.4395648741568821 0.008170614961273541 0)
(0.429267760978048 0.01981982532409139 0)
(0.4087767037992361 0.03358492595645352 0)
(0.376190839394454 0.04988423055117375 0)
(0.3287345664806768 0.0690186091301707 0)
(0.2654718047880103 0.09034116643385634 0)
(0.1684164695462301 0.1131189265375821 0)
(0.08325736567956485 0.1265287051365425 0)
(0.02570804751998278 -0.06741246496743337 0)
(0.05918835543690934 -0.06742426492479325 0)
(0.1024566419290474 -0.06685802169023154 0)
(0.1432109559562925 -0.06593830531928192 0)
(0.18293021449336 -0.06441868444451432 0)
(0.2216584006008134 -0.06225542893021626 0)
(0.2589912412895207 -0.05944796355796644 0)
(0.2945086268069689 -0.05594312778265462 0)
(0.3277700571808795 -0.0516464196732334 0)
(0.3582769680138205 -0.04644397972327178 0)
(0.3854575050109859 -0.04021148735850746 0)
(0.4086624755385919 -0.03281652104921279 0)
(0.4271662678020612 -0.02411722472750217 0)
(0.4401712340385743 -0.01395130403952913 0)
(0.4467781152549438 -0.002099441449982094 0)
(0.446029028913254 0.01162945381650249 0)
(0.4368008623186259 0.0276573829432368 0)
(0.4176664330225402 0.04653025473283719 0)
(0.3868125946156823 0.06897332503378895 0)
(0.3413349694054216 0.09576196528371726 0)
(0.2799629714099449 0.1267690736868634 0)
(0.1827585499742855 0.1614143367745563 0)
(0.0929474106090358 0.1862375389342787 0)
(0.02557867488136627 -0.08643746178258092 0)
(0.05971018247466211 -0.08661975792746519 0)
(0.103258595432669 -0.08605758120312092 5.765907894623152e-23)
(0.1442773503217345 -0.08491256195656051 5.734387618269636e-23)
(0.1843231012174744 -0.0830031102692121 0)
(0.223406066923606 -0.08030229376546752 5.721573890144435e-23)
(0.2611280436233982 -0.07678749759344404 0)
(0.2970879320036791 -0.07237883255872807 -5.694094775202588e-23)
(0.3308571283582779 -0.06695357775303372 0)
(0.361942173306606 -0.0603653595802493 -5.638038853087748e-23)
(0.3897727595694762 -0.05245410403068594 -5.586636959111923e-23)
(0.4136994616538395 -0.04305109955024194 0)
(0.4329970921121062 -0.03197982633738864 0)
(0.4468720069808005 -0.01904578479137277 0)
(0.454444569027575 -0.004004809958811616 0)
(0.4548138622711064 0.01347989972576719 5.06821556688763e-23)
(0.4469827163651351 0.03390148852041921 5.195328893654567e-23)
(0.4295883939837717 0.05794264496812129 0)
(0.4009152955529973 0.08658888662793424 0)
(0.3579843857392023 0.1211410761796404 0)
(0.2991651298848507 0.1623714387909157 0)
(0.2022790455379763 0.2106157297235756 0)
(0.1065961972051919 0.2516971995212403 0)
(0.02558306509715118 -0.105226792858547 -9.655381678863068e-23)
(0.0603896133403523 -0.1054928166794619 -9.527348245869946e-23)
(0.1042693575192814 -0.1049024627016754 7.116578291718862e-23)
(0.145633340283822 -0.1034843664881479 7.067339630732318e-23)
(0.186087395064729 -0.1011644813384267 0)
(0.2256202797988885 -0.0979288375348521 7.01439264809573e-23)
(0.2638463797297571 -0.09372666641297235 0)
(0.3003840954027073 -0.08844866810702003 2.323234374528749e-23)
(0.3348178412377283 -0.08194186176636854 9.262402966914481e-23)
(0.3666609807125508 -0.07402538923144926 -6.917980435113849e-23)
(0.3953455146713653 -0.06450171489916559 -6.873285187202393e-23)
(0.4202209300060248 -0.05316529414007982 0)
(0.4405604105130622 -0.0398079197364051 -1.337604086030662e-22)
(0.4555779499082945 -0.02421420353158031 -1.307527829963696e-22)
(0.4644217111548716 -0.006133137377580514 -8.508808375892418e-23)
(0.4661919292578625 0.01486710330094513 -2.094546017391165e-23)
(0.4600296285951462 0.03940103813991027 6.365578780583548e-23)
(0.4447126251431547 0.06827460329641005 0)
(0.4187411855123965 0.1027765288570634 0)
(0.3792330157048925 0.1448872808175109 0)
(0.3242853722855683 0.1968092537622867 0)
(0.2294462498353305 0.2609998906231971 0)
(0.126464190452105 0.326890616897117 0)
(0.02574865409116862 -0.1252192337019652 -1.241123160514163e-22)
(0.06125236533513619 -0.1253825578727086 -1.229779830745359e-22)
(0.1054921943469196 -0.1246680851428972 0)
(0.147275718201988 -0.1228588752437333 0)
(0.1882026247967732 -0.1200293015258623 0)
(0.2282631115373597 -0.1161766987661017 0)
(0.2670921813588967 -0.1112175069965174 0)
(0.3043281298507593 -0.1050108266485313 1.194468885535594e-22)
(0.3395702028424212 -0.09737099713042054 1.185827998671588e-22)
(0.3723414012315311 -0.08807940340342814 0)
(0.4020779827503816 -0.07689636596811897 0)
(0.428127828832865 -0.06357247115840874 0)
(0.4497565602859077 -0.04785732671238423 -1.678535074702327e-22)
(0.4661663228215219 -0.02949910655949217 -1.631053735546595e-22)
(0.4765428458992409 -0.008216028862216828 -1.052551331005795e-22)
(0.4800090458906726 0.01638110958108911 -1.024114631831956e-22)
(0.4758662062434514 0.04483094887436281 0)
(0.4630283550291262 0.07810190646109046 0)
(0.4403488955106628 0.117825542610822 0)
(0.4053889537609616 0.1668009960767775 0)
(0.3564089714681615 0.2293117358066266 0)
(0.2677589851660916 0.3115864307454416 0)
(0.1561908725032065 0.4161385545202413 0)
(0.02609433508137416 -0.14871462720917 0)
(0.06231112901837472 -0.1488099668464943 0)
(0.1069187735210531 -0.1480203156871414 0)
(0.1492020794054456 -0.1458700381783732 -1.485062611902093e-22)
(0.1906562046931926 -0.142570744352938 -2.962457502854355e-22)
(0.2313092304998396 -0.1381251623543993 -1.475228394343861e-22)
(0.2708275152979744 -0.1324166392571019 -1.467721483627428e-22)
(0.3088700399946927 -0.1252703619217412 -1.458477216922351e-22)
(0.3450543644210458 -0.1164650534483602 0)
(0.3789190089340547 -0.1057428401546831 0)
(0.4099113202770641 -0.09282304067244473 0)
(0.4373843765575878 -0.07741734223092561 0)
(0.4606009015560302 -0.05924276185027603 1.360029767762825e-22)
(0.4787503937031107 -0.03802679055732395 1.323058971585088e-22)
(0.4910022043795961 -0.0134924183403073 1.284662656002706e-22)
(0.4963688665490794 0.01475347360187654 2.485028822988592e-22)
(0.4944540627172037 0.0473164854788641 1.202657871681703e-22)
(0.4843758747598648 0.08510074008518165 1.21323667529169e-22)
(0.4655056158590841 0.1299493760031313 2.747023590726541e-22)
(0.4363503222998643 0.1854406181969529 1.90474870423034e-22)
(0.3962207859587535 0.2586352058831177 0)
(0.3223116341232541 0.3619353498785827 0)
(0.2014402582166745 0.5411086825340286 0)
(-0.0618437047770236 0.0331684309877712 0)
(-0.163055644760447 0.05175614101604217 8.218838726573205e-21)
(-0.3655101563779252 0.05211513235357203 1.172391363896807e-20)
(-0.5549885440123337 0.05263611778522771 2.125330567748615e-23)
(-0.7545806433755989 0.0534254667183847 9.263542406250847e-21)
(-0.9696900766668968 0.05571884220671232 1.082855888211927e-20)
(-1.204473552653153 0.05713001277964664 0)
(-1.442139713587179 0.05356573153943234 0)
(-1.645630608759112 0.04224683921802964 2.895188800584273e-20)
(-1.779275560047406 0.02436288516194595 6.809672288193389e-21)
(-1.832514385525194 0.00597480382531562 -8.222907889504283e-21)
(-1.822029125531895 -0.007175214352876477 -3.916504938093249e-21)
(-1.770689166733769 -0.01514986348317402 1.876116086619189e-22)
(-1.686987181190041 -0.02312368217410686 0)
(-1.563545815183952 -0.03466229067024598 0)
(-1.391513290040462 -0.0478436594921036 -3.985828560885995e-23)
(-1.156419752781347 -0.06382591531214611 -5.097354221856938e-20)
(-0.8229311105518926 -0.09571089593445961 -4.807863165234328e-20)
(-0.3960110761319107 -0.1528925546332411 5.063689364460641e-23)
(-0.07850373966521906 0.07231786449124847 0)
(-0.1969031464923942 0.125390820225663 8.230637742382501e-21)
(-0.4126792368951996 0.1297969005037117 1.153533060652596e-20)
(-0.6067897255377674 0.1332611920891873 4.678327337761511e-23)
(-0.8084647707982221 0.1391056838202446 9.039401327790127e-21)
(-1.02475093453351 0.1498685167217336 1.058804500330343e-20)
(-1.26128350911768 0.1581955529045986 0)
(-1.501575383021149 0.1524568212242677 0)
(-1.707380564814515 0.1243357568218685 0)
(-1.839813693183576 0.07557220966159084 -1.336056278312037e-20)
(-1.886015950829749 0.02314737953365277 -7.965778682595118e-21)
(-1.86485758960272 -0.0136363642048764 -3.838264270956731e-21)
(-1.805271137915417 -0.03296983284662047 -4.280443127259418e-23)
(-1.717882251016774 -0.05152090421268728 0)
(-1.592444953897378 -0.08089834946550054 0)
(-1.41848217642934 -0.1146717349215239 -1.094236637558604e-22)
(-1.184862823554683 -0.1544670214940578 -4.959006480208477e-20)
(-0.8571507126224007 -0.2361780031808451 -4.7029078950691e-20)
(-0.4325343493749541 -0.3945210130559679 1.026443469574138e-22)
(-0.07561493794308724 0.1320128310438185 0)
(-0.2026177127508648 0.2180440183811006 4.21598249048006e-21)
(-0.4273981003333792 0.2216446545688971 5.724596985899797e-21)
(-0.6191663418443013 0.2236713810580326 0)
(-0.8166491056183784 0.2318867770381147 0)
(-1.029990510283016 0.2500071276127509 0)
(-1.268249673804139 0.2644962510095315 0)
(-1.514904353528914 0.2546001660379597 0)
(-1.728315397924852 0.206447344828995 2.875372321581976e-20)
(-1.863132282708157 0.1223898804704863 -6.502872513721937e-21)
(-1.902277473764307 0.0306441822696935 -1.483175992981842e-20)
(-1.869261543777609 -0.03246269441005534 0)
(-1.804256906602079 -0.0620401326764199 0)
(-1.721286267680843 -0.08995400558748588 0)
(-1.603623414541964 -0.1390762553018822 0)
(-1.436740707401492 -0.1955294700022407 0)
(-1.215246869288293 -0.2581360783531327 -4.809035447822365e-20)
(-0.9078753184879649 -0.3901498111534658 -4.776060959207484e-20)
(-0.4939103652885636 -0.6869468588133418 0)
(-0.05820496900916726 0.187185337544188 0)
(-0.1920570684377424 0.3148063102338597 5.358071870344226e-21)
(-0.4280089075446951 0.3148027178635645 6.283712808176894e-21)
(-0.6137622788477852 0.31233768326941 0)
(-0.8035732243891334 0.3224567390026061 0)
(-1.012432967656732 0.3501323107137986 0)
(-1.25452444261877 0.3738522578709047 0)
(-1.512292484579057 0.361147400281599 0)
(-1.738161999054395 0.2924566205519603 5.834944624676143e-20)
(-1.876863353724972 0.1710870624798352 2.499999241208577e-20)
(-1.903941800655492 0.03571747862724883 -6.481436541073322e-21)
(-1.849954017747493 -0.05466865277383038 -3.184174196765423e-21)
(-1.778914897192317 -0.08948768805749363 -1.121262606964528e-21)
(-1.706460118789225 -0.1212101764403585 0)
(-1.604448536886472 -0.1906289593586647 0)
(-1.451127285743924 -0.2708817718611154 -2.807759572270631e-21)
(-1.247863262919925 -0.3528936929965846 -2.640347867322266e-20)
(-0.9702356036101097 -0.5322385548242582 -2.461498325962695e-20)
(-0.5593852353346669 -1.010796959772545 0)
(-0.02441846111988701 0.2326146783846839 0)
(-0.1662910836007834 0.4159993215057652 4.893968063818686e-21)
(-0.4171376612368404 0.4085690134048225 6.411828634915018e-21)
(-0.5912413751986689 0.3966737643267919 4.7448094441826e-22)
(-0.7673720573083955 0.4082039950923327 0)
(-0.9673349872565659 0.4484233836874838 0)
(-1.211805823423277 0.4853456290245635 0)
(-1.479993071244312 0.4704986849569754 0)
(-1.715155090139349 0.3785880653074548 2.992778551937641e-20)
(-1.850535670667273 0.2164698765676568 5.891185856285877e-21)
(-1.853593123630906 0.03101915382116298 -5.025155583724964e-21)
(-1.768272634794547 -0.0871151259777404 -4.84814493811401e-21)
(-1.698674346661465 -0.1180911606035742 -2.018045880048054e-21)
(-1.648493285407312 -0.1435952483999222 -1.122807009793391e-21)
(-1.572990254452793 -0.2338746877599726 0)
(-1.441256443587805 -0.3398702059413778 -3.44046395486413e-21)
(-1.261707606001566 -0.4393042698249601 -8.238204722457279e-21)
(-1.021575539254987 -0.6627681335298992 -4.704781101931846e-21)
(-0.5893843622733526 -1.367551777544211 0)
(0.03244888722681057 0.2619979060696233 0)
(-0.1229381319287804 0.5223374634346419 4.230135627152846e-21)
(-0.3937257740356465 0.5034094258829892 5.35279232501466e-21)
(-0.5456554581622256 0.4742513387375253 -1.765486196399729e-22)
(-0.6971522276349614 0.4865087226634469 0)
(-0.8788125972847607 0.5431161385492911 0)
(-1.118111416159977 0.5981325075738644 0)
(-1.387278253380437 0.5811233164276792 -2.18420173917093e-21)
(-1.615792741850075 0.4607969706900231 -3.732852208920762e-21)
(-1.727566669615728 0.2549268712887089 -2.166904196826029e-20)
(-1.686417940684603 0.01442129166766637 -3.081764349902226e-21)
(-1.574104305537577 -0.1303752033929226 -1.265592900432478e-21)
(-1.528790427954984 -0.1411859454890833 -3.161169740767247e-21)
(-1.519880455002804 -0.146051226490774 1.248933840869454e-21)
(-1.481659058825401 -0.2602156164255799 0)
(-1.37995586791211 -0.3948880548641235 0)
(-1.228990859410748 -0.5157394773493884 -4.819791231531583e-21)
(-1.037164139091978 -0.7828811776570717 -1.383642377840656e-20)
(-0.5584891966071337 -1.718422975014452 -2.527452778411711e-21)
(0.1247945084407846 0.2749220036001393 0)
(-0.05371838566263819 0.6451218144040172 1.255696128632443e-20)
(-0.353662722101572 0.6006538321538069 1.212347471280682e-20)
(-0.4673327736067787 0.5388687538369333 -7.708802970903339e-22)
(-0.5770761194028652 0.5508569434666563 0)
(-0.7242234154811424 0.6279474540273255 0)
(-0.9424790350353567 0.7061186368057712 0)
(-1.191449809287249 0.6845752270264335 -2.404863534809381e-21)
(-1.377946751807884 0.5258010167394145 -3.989894715712647e-21)
(-1.421587816903298 0.2775582275951188 -9.785060113047418e-21)
(-1.294207915131401 -0.006977893332090146 3.175701209666231e-21)
(-1.220728049318576 -0.1841082621423829 1.668022906623247e-21)
(-1.234974630541899 -0.1517510169159805 -9.286233281639975e-21)
(-1.294770541274958 -0.1214523178042591 0)
(-1.296565903792024 -0.2686281943914017 0)
(-1.235407354831766 -0.4363271585848443 0)
(-1.122229334036881 -0.5852313031955593 0)
(-0.9934093668267464 -0.8851149164285207 -9.104415355421945e-21)
(-0.4532316360572039 -2.0747226265775 -4.356525133629583e-21)
(0.2822446086186279 0.1302874128691316 -7.28865050406967e-21)
(0.08249398619696821 0.7788250382764041 1.355006715049568e-20)
(-0.2740846331462978 0.6916358179020555 1.273384053534968e-20)
(-0.3246834400596789 0.5784319181714108 0)
(-0.3857464029710466 0.6106916337309953 0)
(-0.4779931444959896 0.7028004680489014 0)
(-0.656366120841722 0.7960438096805359 0)
(-0.863904491428623 0.751302894065338 0)
(-0.9662917075056014 0.5347901327299623 3.42657565685851e-20)
(-0.8734433101618723 0.230311268098032 4.992047463266188e-21)
(-0.5213432917655716 -0.09572140430413674 2.474262232102001e-21)
(-0.6902151864917587 -0.1937307755069445 3.82468910981458e-21)
(-0.7867165191334028 -0.1348414685400379 -7.120505546956901e-21)
(-0.9537550649710466 -0.08479196243587536 0)
(-0.97494797560767 -0.2768054857905405 5.434295694713977e-21)
(-0.9701336253651091 -0.494201888843933 7.084680871303316e-21)
(-0.9131469407178618 -0.6747798531810301 -1.373078317668879e-20)
(-0.8720120740594874 -0.9808482802273026 -1.833137926941273e-20)
(-0.2927570573020922 -2.420740317378018 6.277492535097147e-21)
(0.02649798787710166 -0.1736004091129905 0)
(0.06337026109695845 -0.1738380115988687 0)
(0.1083562101764176 -0.172945891086462 0)
(0.151224757559232 -0.1705659539403531 -1.798010746797247e-22)
(0.1932611001100028 -0.1668795650022623 -3.590185336425168e-22)
(0.2345731206313235 -0.1618836788940916 -1.792728376671184e-22)
(0.2748697203217493 -0.1554347048462693 -3.829918470702533e-37)
(0.3138334815532527 -0.1473140581852283 3.642717523788712e-37)
(0.3511067566383833 -0.1372511153520527 0)
(0.3862538542790576 -0.1249358210324689 1.78998506826068e-22)
(0.4187481376992936 -0.1100373277005514 1.781361367315286e-22)
(0.4479720711388351 -0.0922277297838875 -8.807382770678803e-23)
(0.4732286844753947 -0.07120103030481034 8.614478276131052e-23)
(0.4937738757941775 -0.04667750525838973 1.659674746411379e-22)
(0.5089138217758896 -0.01834358616300257 2.356199338426183e-22)
(0.5177693964596859 0.01434530419155808 3.675017194526569e-22)
(0.5208162163200114 0.0524143983846368 1.432644655266125e-22)
(0.5180609570888147 0.09589304508645685 1.342677264104068e-22)
(0.5105878654014939 0.1460415083230882 2.601690357510387e-22)
(0.5006043957241761 0.2061540750418524 1.492863961693633e-22)
(0.4943210851437195 0.2831365074654048 -2.242190587464619e-22)
(0.5156089787298613 0.3847718319925165 -3.746067798427417e-22)
(0.5462957156129149 0.5490058017811552 0)
(0.02709804820869625 -0.2236330070104368 0)
(0.06499442447330554 -0.223507262711032 0)
(0.1107945254843087 -0.2221491393468661 0)
(0.1546388061981546 -0.2191547809733381 0)
(0.197751894224879 -0.2146744164915861 0)
(0.2402890740359764 -0.2086926592238677 0)
(0.2820295423697546 -0.2009996393411747 2.18438321455996e-22)
(0.322708688409286 -0.1912808319489992 2.228866820767006e-22)
(0.362012478649645 -0.1791540505345215 0)
(0.3995430347317692 -0.1641750967116191 2.355431511623312e-22)
(0.4347998622527149 -0.1458611908418845 2.431294923618758e-22)
(0.4671813719098968 -0.1237388867300936 -1.253976347737715e-22)
(0.4960067786662947 -0.09740910575351849 -1.282935610625225e-22)
(0.5205827139588614 -0.06670048368767863 0)
(0.5403894357185839 -0.03186243831184461 1.247276352284401e-22)
(0.5555792687999831 0.006346256978337685 1.161954517846432e-22)
(0.5642910689090807 0.04732808378078505 0)
(0.5660691461884245 0.09278143150216808 0)
(0.5638735145681399 0.1428719697944433 0)
(0.5623881447445862 0.199570658060657 0)
(0.5662010215044323 0.2663155241044852 3.260480847258467e-23)
(0.5851471076379487 0.3407076346629212 1.925033730446777e-22)
(0.6112107284421545 0.4059174565755532 0)
(0.02798289446240272 -0.2780396615646121 0)
(0.06657138690473256 -0.2768092403239888 0)
(0.1128037793504025 -0.2751886690066954 3.10276119703633e-22)
(0.1572844208964876 -0.2717578582356579 3.152925526764325e-22)
(0.2011085775459178 -0.2668327459587299 0)
(0.2444998040897559 -0.2604367392903543 0)
(0.287328986257469 -0.2523134527738158 0)
(0.3293944804883283 -0.2421061292318827 0)
(0.3704449441467857 -0.2293956875014273 0)
(0.4101523555971587 -0.2136755040605261 0)
(0.4480692825278494 -0.1943528239314981 0)
(0.4836347374129247 -0.1707516313217607 0)
(0.5160887222283117 -0.1421081978535091 0)
(0.5444984118282521 -0.1075770415662326 0)
(0.5679429787411657 -0.06616631503521875 0)
(0.5861055433643347 -0.01665056025747465 0)
(0.5975681678196197 0.04023773834206993 2.638943195118295e-22)
(0.6022398734160336 0.1004170237222014 2.285641140954306e-22)
(0.603291158251013 0.1583575378771763 0)
(0.6066345749875764 0.2123788435831414 8.62384880479829e-23)
(0.6149376406711008 0.2675003428174768 3.817327920102902e-22)
(0.6308578619519207 0.3236204098590847 0)
(0.6629095181857827 0.3758638511905126 0)
(0.02867747614029389 -0.3150240484815696 0)
(0.06750294714189355 -0.3128678961904673 0)
(0.1140107967823393 -0.3112180041695242 8.597917863470332e-22)
(0.1590103709908332 -0.307428210217011 8.922146920348396e-22)
(0.2033353704997291 -0.3020339233801042 0)
(0.2473071819110609 -0.2950852755511602 0)
(0.2908711991267622 -0.2862462643046306 0)
(0.3338214820030618 -0.2750888673906045 0)
(0.3758946521392164 -0.2611351178725989 0)
(0.4167651048887758 -0.2438008737105789 0)
(0.4560086107975945 -0.2224422582623019 0)
(0.4933780471113313 -0.1963514624700964 0)
(0.528563461838005 -0.1648024521007581 0)
(0.5615265389327141 -0.1271911880267011 0)
(0.5926574600915977 -0.08325650983485336 0)
(0.6206791051958743 -0.03398076217184681 0)
(0.6378101545471293 0.01587302224095799 4.063545965942362e-22)
(0.6421290279720047 0.0647944505132569 2.749282765901369e-22)
(0.6434511594805937 0.11232660410342 0)
(0.6482426187493359 0.1630275075962352 1.588433872354477e-22)
(0.6548788290543107 0.2221823853416062 8.38868759998457e-22)
(0.6674979725661849 0.2818220916106444 0)
(0.6982855116827474 0.3374810996043542 0)
(0.02517661757276937 -0.3644971214853012 0)
(0.04771153537262268 -0.3582100759139738 0)
(0.09210958937522357 -0.3605130616266439 5.271394181384782e-22)
(0.1332275635669146 -0.3564472780986382 5.853449000099107e-22)
(0.1754474833667039 -0.3509401909278542 0)
(0.2195861751319395 -0.344101600688417 0)
(0.2652895416795304 -0.3347566794662135 0)
(0.3112600905528557 -0.3218443535288205 0)
(0.3549697251912756 -0.3044494682683917 0)
(0.393308856962902 -0.2811306954190992 0)
(0.422028585884958 -0.251681384397782 0)
(0.4402245833976622 -0.2166697100186639 0)
(0.4495030264924438 -0.1762709623958661 0)
(0.451863902831671 -0.1310045693026485 0)
(0.4472632990011818 -0.08242819785160176 0)
(0.4503395972700602 -0.03009974462824772 0)
(0.3089492697315139 0.04998036570003589 0)
(0.5165805167050357 0.1046806362347682 0)
(0.5850252419081409 0.1542764845528529 0)
(0.6178692037399628 0.1938782419237019 9.554502530968084e-23)
(0.6426604987944826 0.2393925286873654 5.046278082702913e-22)
(0.6701888443302072 0.2793480816583255 0)
(0.7097831350590885 0.3144721428119372 0)
(0.009906115945369018 -0.3983916315538425 0)
(0.0289160380767758 -0.4017725865323759 0)
(0.06381289908652382 -0.4057105704582077 0)
(0.09556458318558612 -0.4042321522925179 -1.652126535090132e-21)
(0.1310460178446817 -0.4014071199129166 -1.738815190401429e-21)
(0.1697749104467709 -0.3973727642638322 0)
(0.2106288687575412 -0.3897465861780573 0)
(0.252079397839211 -0.3763895590882538 0)
(0.2921074584579427 -0.3553302471664875 0)
(0.3294641840268283 -0.3246505965618344 0)
(0.3633249553837343 -0.2864761520546553 0)
(0.3932820433923081 -0.2437298980666375 0)
(0.4188187309193888 -0.1982416004062597 0)
(0.4375048352367618 -0.1483811567838358 0)
(0.4455523687223367 -0.09286467600041197 0)
(0.4442739999536747 -0.02921847330397374 0)
(0.4348335384078182 0.02939836890275843 0)
(0.4230964076577374 -0.1131984881074045 0)
(0.4179338127732689 0.01241084445225461 -4.529086987477888e-22)
(0.4348553525610577 0.1455731179152634 -1.684176724690298e-21)
(0.3289220939781443 0.2265600306040042 0)
(0.6054270856561544 0.2544882253033801 0)
(0.6820954401054413 0.2923710239967998 0)
(0.006030850702798123 -0.412427743132343 0)
(0.02489316481374576 -0.4302656060577142 0)
(0.05463208577644283 -0.4359102643566499 0)
(0.08391371747171071 -0.4375772319720427 -1.624798879776725e-21)
(0.1170875148058729 -0.4388175453345776 -1.713353307328427e-21)
(0.1537564900883495 -0.4382349874172485 -2.072360325293454e-21)
(0.1926881597038464 -0.4328868206596909 -2.194404538519743e-21)
(0.2323726916483632 -0.4201305709027398 0)
(0.2710696923503092 -0.3982862012807377 0)
(0.3075684011337829 -0.3666866333572133 -2.540952705234206e-21)
(0.3408071423427544 -0.3266878863479209 -2.64304973096697e-21)
(0.3706407889272831 -0.2811285040073078 0)
(0.3985014987945802 -0.2314514075039665 2.750427889643391e-21)
(0.4242223382966051 -0.1715836284374934 5.63331717612128e-21)
(0.4462959924914094 -0.1000513182621726 3.034344264929264e-21)
(0.4646249509776125 -0.02367923681768552 0)
(0.4852942710504314 0.04370916987015257 0)
(0.4781007346816759 0.09074859382319825 0)
(0.4399424477412656 0.1130011103925607 2.480215066719018e-22)
(0.4410698368160929 0.1441372265851157 -1.147418246550398e-22)
(0.4779835914502021 0.1846190078675689 2.371816868930535e-21)
(0.541264313268401 -0.06843213147690369 0)
(0.6081132075364538 0.1171139489399063 0)
(0.005967408548755525 -0.4294245646367186 0)
(0.02343571859642477 -0.4580509363541824 0)
(0.04779737446009335 -0.4661861969032298 0)
(0.07324948581162172 -0.4713898230968483 0)
(0.1019579605983753 -0.4763656692866728 0)
(0.1337245114713196 -0.4787386683541205 -2.003310658785665e-21)
(0.1672077563985271 -0.4749777286053303 -2.118703035871002e-21)
(0.2011045145418137 -0.462108560534721 0)
(0.2340975972858418 -0.4386433040914615 0)
(0.2656052174290622 -0.4041110707445905 -2.46244381115857e-21)
(0.2946049680867462 -0.3602219104618856 -2.57844408033708e-21)
(0.3209149314475235 -0.3114012760756831 0)
(0.3465178360704402 -0.2613582921094775 2.448346800943467e-21)
(0.3699087001578918 -0.1997456456920167 4.599105086597286e-21)
(0.3910411784447011 -0.1280467705430518 2.297979834159202e-21)
(0.413678524029616 -0.05714994066058877 0)
(0.4405452716370258 -0.004052338127800032 0)
(0.4678689272285411 0.02252941773935343 0)
(0.4936753186055661 0.0537426546619577 0)
(0.5318055717541208 0.08372186275443974 -3.690813159248855e-22)
(0.5942250990489004 0.1028048004409964 -8.831792846619248e-22)
(0.6358920947808361 0.08765027329125002 0)
(0.6574858925364664 0.1166444828617794 0)
(0.006101787671067178 -0.4452713516604712 0)
(0.02102181414699848 -0.4801684162610056 0)
(0.03973023852594543 -0.4900908972204211 0)
(0.05999565073606497 -0.4980455843055919 0)
(0.08254340347447167 -0.5058355673702386 0)
(0.1072613345310433 -0.5101525191210035 0)
(0.1326617470583321 -0.5070558972186042 0)
(0.1577872769216028 -0.4936151516493869 0)
(0.1817507259788436 -0.4689213793086311 0)
(0.2048490337077752 -0.4326364218702998 0)
(0.2264523960906679 -0.3871929197042039 0)
(0.2471270810606135 -0.3371302180036276 0)
(0.2655500584932171 -0.2851828840507398 0)
(0.2785013756527593 -0.2190343809474937 0)
(0.2922081145858735 -0.1500086491870713 0)
(0.3157279734239502 -0.08120598804254815 0)
(0.3510446501782616 -0.02731983497718673 0)
(0.3911276170935906 0.01263075817081999 0)
(0.4357693304243691 0.03254800064271741 0)
(0.4878540750453471 0.03416679252281309 0)
(0.5366819962733044 0.03655627814219654 0)
(0.5683769688303371 0.02980674801384089 0)
(0.6106229778792419 0.04402660091508721 0)
(0.005382860409775862 -0.4586574941970903 4.866351774704883e-38)
(0.01684859474142714 -0.4964767815400162 0)
(0.02957133068909718 -0.5073629124570772 0)
(0.04374651444090556 -0.5172213516468411 0)
(0.05892697717596674 -0.5267637181267586 0)
(0.07509056626035165 -0.5318653891682701 0)
(0.09060158386243014 -0.5283922707476181 0)
(0.1049365542177276 -0.513742970323962 0)
(0.1175020275276507 -0.4877547540841357 0)
(0.1292351766314812 -0.4502108742781942 0)
(0.1397679254456181 -0.4043153354724705 0)
(0.1495978246611878 -0.3522680905107398 0)
(0.1571617477596893 -0.2939147255283063 0)
(0.1604175226729327 -0.2232753781830155 0)
(0.1714624450826515 -0.1689185367658376 0)
(0.1975551832155112 -0.1176554435250614 0)
(0.2376470556016711 -0.08084199801744987 0)
(0.2793793837267377 -0.05156487249090335 0)
(0.3206611860491517 -0.0313385199547499 0)
(0.3578094833889334 -0.01725039865875552 0)
(0.3894979144593629 0.00298343677121169 0)
(0.4304312829702288 0.01125493610291213 0)
(0.4977343099282234 0.008421547776324236 0)