/*--------------------------------*- C++ -*----------------------------------*\
| =========                 |                                                 |
| \\      /  F ield         | OpenFOAM: The Open Source CFD Toolbox           |
|  \\    /   O peration     | Version:  2206                                  |
|   \\  /    A nd           | Website:  www.openfoam.com                      |
|    \\/     M anipulation  |                                                 |
\*---------------------------------------------------------------------------*/
FoamFile
{
    version     2.0;
    format      ascii;
    arch        "LSB;label=32;scalar=64";
    class       surfaceScalarField;
    location    "0.2";
    object      alphaPhi0.water;
}
// * * * * * * * * * * * * * * * * * * * * * * * * * * * * * * * * * * * * * //

dimensions      [0 3 -1 0 0 0 0];

oriented        oriented;

internalField   nonuniform List<scalar> 
4432
(
5.15830021253676e-06
-5.158300123997634e-06
1.041355839085701e-05
-5.255258039284218e-06
1.568806888750922e-05
-5.274510350139352e-06
2.104267097150874e-05
-5.354601945713228e-06
2.65028657797499e-05
-5.460194691405853e-06
3.207880186098696e-05
-5.575936001923442e-06
3.777717779901287e-05
-5.698375911617995e-06
4.359557615989067e-05
-5.8183983974614e-06
4.951534677507153e-05
-5.919770716112112e-06
5.549399637034772e-05
-5.978649751373378e-06
6.145554756321813e-05
-5.961551386276104e-06
6.727846748906568e-05
-5.822920062770547e-06
7.278116791699417e-05
-5.502700232482278e-06
7.770275965127691e-05
-4.921590717247923e-06
8.167751253594649e-05
-3.974750465204647e-06
8.420747976268204e-05
-2.52996296473041e-06
8.465752070547086e-05
-4.500342961296998e-07
8.223986758438255e-05
2.417663378488539e-06
7.602747259457724e-05
6.212410694084099e-06
6.506026865610335e-05
1.096722784012335e-05
4.873106379625249e-05
1.632924008491181e-05
2.625975932414523e-05
2.247134555834828e-05
2.621844583949584e-05
5.214015469419211e-06
-1.037231551184359e-05
1.047620322193266e-05
-1.051744567552996e-05
1.57825842449983e-05
-1.058089125559981e-05
2.116873319959444e-05
-1.074075079553313e-05
2.665692928370862e-05
-1.094839069717046e-05
3.226146983825165e-05
-1.118047651957625e-05
3.799092240682769e-05
-1.142782849774368e-05
4.384403472741374e-05
-1.167151079648573e-05
4.980390439092143e-05
-1.187964051629241e-05
5.583066505166353e-05
-1.200541059452318e-05
6.185172593070357e-05
-1.198261247413037e-05
6.774964047021447e-05
-1.172083469269372e-05
7.334735423817331e-05
-1.110041352442043e-05
7.838846787028827e-05
-9.962702551966522e-06
8.251161872628971e-05
-8.097897466293861e-06
8.522392368517829e-05
-5.24226184622879e-06
8.586396106013595e-05
-1.090063458302716e-06
8.363711523076036e-05
4.644520384543691e-06
7.758337775157108e-05
1.226616390679568e-05
6.668843580506978e-05
2.186219327004262e-05
5.007700959163644e-05
3.294070192102073e-05
2.723072404760838e-05
4.531767605169186e-05
5.346309863817268e-05
5.206051545784886e-06
-1.557836700802891e-05
1.044346894203939e-05
-1.575486300081873e-05
1.574009133978848e-05
-1.587751358695475e-05
2.111825178203459e-05
-1.611891118779315e-05
2.659791080039911e-05
-1.642804969441532e-05
3.219650189968313e-05
-1.677906763891189e-05
3.792515756407253e-05
-1.715648423214896e-05
4.378510241158278e-05
-1.753145576557528e-05
4.976285487382561e-05
-1.785739314458905e-05
5.582324128061015e-05
-1.806579719672419e-05
6.189968000543804e-05
-1.805905140436984e-05
6.788202601396949e-05
-1.770318068791157e-05
7.360143173382198e-05
-1.681981829634614e-05
7.880877983421666e-05
-1.517004764491742e-05
8.314623627298399e-05
-1.24353479429167e-05
8.611743458955538e-05
-8.213451487110546e-06
8.706967000515105e-05
-2.042288551133623e-06
8.518566655893623e-05
6.528535743677371e-06
7.949634957895721e-05
1.795549531767724e-05
6.89135555372143e-05
3.244500800290713e-05
5.23391864980816e-05
4.951510489879214e-05
2.900011239152561e-05
6.865679956239145e-05
8.249147456670683e-05
5.18925781775592e-06
-2.076762481591255e-05
1.0400039792944e-05
-2.096564495649787e-05
1.567932019177274e-05
-2.115679397545292e-05
2.104227536823696e-05
-2.148186637303427e-05
2.65084621629119e-05
-2.18942365266173e-05
3.209816729017939e-05
-2.2368772840197e-05
3.782571204567904e-05
-2.288402910116455e-05
4.369613883457761e-05
-2.340188270323457e-05
4.970119337123238e-05
-2.386244785373752e-05
5.581274746789587e-05
-2.417735147288789e-05
6.197326727057379e-05
-2.421957137575005e-05
6.808388439545622e-05
-2.381379760636453e-05
7.398869380027236e-05
-2.272462600574085e-05
7.945000868926198e-05
-2.063135775923213e-05
8.411574233993056e-05
-1.710107278358105e-05
8.748830038214525e-05
-1.15859976027745e-05
8.890546250827276e-05
-3.45943798034437e-06
8.75269849501929e-05
7.907025886755459e-06
8.236766951372246e-05
2.311482349999484e-05
7.226129625909423e-05
4.255139841635308e-05
5.585383194351154e-05
6.592260098136154e-05
3.180708402739441e-05
9.270360307435032e-05
0.0001142984274558648
5.16153282266792e-06
-2.59291576704538e-05
1.034114626031075e-05
-2.614525842633596e-05
1.55965516283549e-05
-2.641219938864109e-05
2.093787653781846e-05
-2.682319134709365e-05
2.638605327304423e-05
-2.734241335144396e-05
3.196439910666173e-05
-2.794711879009777e-05
3.769105378111304e-05
-2.861068391464549e-05
4.357613653305556e-05
-2.9286965606339e-05
4.961839482124433e-05
-2.990470628949322e-05
5.57991087411405e-05
-3.035806551906007e-05
6.20728992509828e-05
-3.049336197440406e-05
6.835640707072193e-05
-3.009730488447232e-05
7.45117016443499e-05
-2.887991769033595e-05
8.03163779998858e-05
-2.64360267243221e-05
8.542494712645628e-05
-2.220962924701402e-05
8.933611416593822e-05
-1.549714879520598e-05
9.137762510825715e-05
-5.500933873977904e-06
9.068625832804668e-05
8.598405643133674e-06
8.626978472130615e-05
2.753130788834995e-05
7.687817142715754e-05
5.194302489367451e-05
6.08428466975109e-05
8.195795505363966e-05
3.597656412057486e-05
0.000117569949833848
0.0001502748562893277
5.124424621308979e-06
-3.10535823575455e-05
1.026873426078869e-05
-3.128956813892277e-05
1.549466965552687e-05
-3.163813486984357e-05
2.080932004569577e-05
-3.213784184078883e-05
2.623598870051801e-05
-3.276908212603305e-05
3.180132775616038e-05
-3.351245797508139e-05
3.752793120913244e-05
-3.433728749354458e-05
4.343213215211001e-05
-3.519116665313112e-05
4.952138024123981e-05
-3.599395443889009e-05
5.578875169326676e-05
-3.662543696719184e-05
6.220430674449671e-05
-3.69089169385328e-05
6.870495713763624e-05
-3.659795411159189e-05
7.517639081255368e-05
-3.535134646751128e-05
8.141532713146492e-05
-3.267495160867969e-05
8.708357881046911e-05
-2.787786284214465e-05
9.167609596160545e-05
-2.008964530332139e-05
9.451036064711009e-05
-8.335181623395449e-06
9.469233188887852e-05
8.416447054661275e-06
9.124825791249275e-05
3.097539059954851e-05
8.287971316715505e-05
6.031157895869141e-05
6.760716205215581e-05
9.723053318906754e-05
4.21388476974562e-05
0.0001430383405355064
0.0001905722023300084
5.086672882026821e-06
-3.614025531974238e-05
1.019214286359388e-05
-3.639503821072468e-05
1.538307291671397e-05
-3.682906502283849e-05
2.066631212053923e-05
-3.742108115063817e-05
2.606782087430749e-05
-3.817059098345956e-05
3.161796713955635e-05
-3.90626043249387e-05
3.734441056588669e-05
-4.006373096110904e-05
4.327070514010328e-05
-4.111746119525778e-05
4.941458072605918e-05
-4.213782988754361e-05
5.578326414619774e-05
-4.299412011277406e-05
6.236571246237273e-05
-4.349136480336651e-05
6.91243424781577e-05
-4.335658176210017e-05
7.597413102779654e-05
-4.220112661619151e-05
8.273350206560877e-05
-3.943430475039042e-05
8.906993394191932e-05
-3.42142687040347e-05
9.446943368535344e-05
-2.548911823417546e-05
9.824283591970871e-05
-1.210856612179529e-05
9.95007041395015e-05
7.158589367410972e-06
9.72984223814238e-05
3.317767882271296e-05
9.036811430095799e-05
6.724189338008495e-05
7.653634053260788e-05
0.0001110623324587107
5.14081741571185e-05
0.0001681666007644598
0.000240995698763663
5.057994312794991e-06
-4.119824967517505e-05
1.01135127520637e-05
-4.145055668743847e-05
1.526487650486831e-05
-4.198042880075715e-05
2.051105101792749e-05
-4.266725566197185e-05
2.58821958483232e-05
-4.354173576263551e-05
3.141304606675782e-05
-4.459345440887393e-05
3.713682443419557e-05
-4.578750906409609e-05
4.308531129759098e-05
-4.706594760425168e-05
4.928815703038977e-05
-4.834067490166747e-05
5.576927756247383e-05
-4.947523956438001e-05
6.254079865415582e-05
-5.026288429777144e-05
6.959743112530793e-05
-5.041320889677898e-05
7.689008345207269e-05
-4.949376275651486e-05
8.426192901563147e-05
-4.680611802094908e-05
9.138783185979257e-05
-4.134012649039823e-05
9.774483949650969e-05
-3.184608135964069e-05
0.0001025924391792723
-1.695614221764574e-05
0.0001050828317124442
4.668199924801011e-06
0.0001043690350626125
3.389146937337746e-05
9.935867115927386e-05
7.225225534607821e-05
8.800741140562013e-05
0.000122413630856568
6.574883670870576e-05
0.0001904253390494439
0.0003066000971983925
1.836816630535472e-39
-9.820904671691969e-41
3.386348595606218e-38
-1.179353987289193e-39
3.775356308876674e-37
-4.587403448260558e-39
3.222060329633746e-37
3.243031344906775e-36
1.216037200823182e-38
4.566622437558089e-36
1.192291496542693e-40
2.421827762077847e-37
5.332900317301998e-43
3.36961712828106e-39
1.215097704461807e-45
2.245685997904806e-41
1.558538602921514e-48
8.139855257012741e-44
8.920912380221312e-52
1.88443798550375e-46
-3.963789405940098e-52
2.918334904035633e-49
-3.164307666785188e-54
8.162997503839829e-52
-1.690144993029996e-56
1.615444360405199e-54
-6.556733951490696e-59
-1.388817750981142e-61
-2.232888240792888e-61
-3.325152202129308e-62
-6.464839829621391e-64
-1.97443291291028e-64
-1.550480291041655e-66
-8.609353477852337e-67
-2.322109234781995e-69
-2.868639418984085e-69
-4.876542630115494e-72
3.657156633424349e-37
-4.113709856066471e-38
6.049406210852147e-36
-4.352205881362455e-37
5.856779072119714e-35
-1.439461453270383e-36
2.899513053647783e-35
4.351863828216054e-34
1.047958165586882e-36
3.538637484647993e-34
1.13024783696734e-38
1.871075688708028e-35
5.852533011900434e-41
2.962112589921701e-37
1.570384209782861e-43
2.432091752700799e-39
2.068309760691918e-46
1.129987070408728e-41
7.7918825331631e-51
3.395928718660472e-44
-3.239942166583401e-49
7.671812763337434e-47
-2.410772943625139e-51
2.457269992937231e-49
-1.300008207784404e-53
4.955523151059888e-52
-6.137342161751572e-56
-2.988575968262952e-57
-2.933532738399991e-58
-8.267255979332875e-59
-1.333683992709157e-60
-7.248633776129252e-61
-5.005637820443131e-63
-4.897414849936416e-63
-1.039231735243023e-65
-2.27519555994886e-65
-4.783828595040659e-68
3.116600154420736e-35
-5.992799921363781e-36
4.319093157198084e-34
-5.074264549679333e-35
3.425159959258855e-33
-1.306271750884245e-34
1.079913534672135e-33
2.041806529404051e-32
3.90080411359587e-35
1.080835153009332e-32
4.732026275208459e-37
5.980125419389578e-34
2.997921590795751e-39
1.092969657870806e-35
9.965150408153321e-42
1.171364850894454e-37
1.581166948721039e-44
7.051728228745969e-40
-2.415937679631827e-45
2.846744661637745e-42
-5.059143400097269e-47
9.637853748447308e-45
-4.132582882153079e-49
3.607230674424513e-47
-2.480614610918585e-51
8.120779980709564e-50
-1.215599594190356e-53
-1.361251632982047e-54
-5.791675159590864e-56
-2.505250981963705e-56
-2.620898755159141e-58
-2.169716462227859e-58
-9.911373064033075e-61
-1.465932187209873e-60
-2.093414362972251e-63
-6.900348322041848e-63
-1.483242869027112e-65
1.618102389967825e-33
-5.227414680192679e-34
1.663007535099075e-32
-3.084518262218439e-33
9.711417922276567e-32
-5.23446298543982e-33
2.155984666755471e-32
4.15454589512223e-31
8.137926625868997e-34
1.620492743585392e-31
1.124058996732131e-35
9.902275154543462e-33
9.133050482380654e-38
2.130144901231753e-34
3.775983180244227e-40
3.3175518573451e-36
7.008618793969734e-43
2.670052137505938e-38
-3.103973255941419e-43
1.472620257944501e-40
-5.027057621725883e-45
7.56678797878811e-43
-4.695074216366666e-47
3.488960812426128e-45
-3.147872378879328e-49
8.335728808807421e-48
-1.673363517454529e-51
-2.943856948877744e-52
-8.106193196946319e-54
-4.805665139849755e-54
-3.573092785484411e-56
-3.963363753296437e-56
-1.298120630378816e-58
-2.556734919351108e-58
-2.673349580561066e-61
-1.169378525151171e-60
-2.499888284239416e-63
5.780222054597588e-32
-3.140548112230877e-32
3.724131630655975e-31
-1.172750673946103e-31
1.339629455408788e-30
-1.024799359487683e-31
2.36332597690516e-31
3.541061552551442e-30
9.829942986855362e-33
1.16317412188059e-30
1.574757391333761e-34
8.290281487005609e-32
1.7942307409671e-36
2.146194378631439e-33
9.216424132964924e-39
5.815242639900991e-35
1.635238468839069e-41
6.840560136562819e-37
-2.093369592537817e-41
5.283818625945509e-39
-3.651872545558834e-43
4.026531597203634e-41
-3.930517496399611e-45
2.287361627022213e-43
-2.949462467647658e-47
5.737625503832018e-46
-1.730613842878644e-49
-4.204129998673047e-50
-8.829995693037046e-52
-6.622447480182456e-52
-3.913963510895148e-54
-5.38827756424499e-54
-1.381641882839193e-56
-3.358297151085938e-56
-2.753596987593993e-59
-1.481818369321104e-58
-3.111371063322691e-61
1.810312622976084e-30
-1.473169751989514e-30
6.262467118184887e-30
-3.654339105121614e-30
8.15294897654299e-30
-1.168642395892235e-30
1.301084172555144e-30
9.877242135987836e-30
6.295029030282086e-32
3.113575134592576e-30
1.186056770602631e-33
2.722946299611748e-31
2.2386602430651e-35
8.659824082767118e-33
1.490058402865664e-37
5.141665060670909e-34
8.355527256070787e-41
1.196366960193554e-35
-9.672735076210185e-40
1.459006723465269e-37
-1.921243303902028e-41
1.508166355642057e-39
-2.445705312260914e-43
1.051956990245682e-41
-2.135122880793345e-45
2.739707876012454e-44
-1.423648198252493e-47
-4.647855173245736e-48
-7.912873557000577e-50
-7.148471162019591e-50
-3.635765017803343e-52
-5.918864782774838e-52
-1.265500618769031e-54
-3.616587595220082e-54
-2.432872719896662e-57
-1.534449946285897e-56
-3.128011792916724e-59
2.692125940018499e-29
-2.834553062748657e-29
6.083221138119236e-29
-5.083943601609791e-29
1.663990175028658e-29
-2.804294568621095e-30
2.718367540008199e-30
-3.294640757901703e-40
1.614028640456358e-31
-6.799725583281106e-40
3.620551372279643e-33
-5.217450881103166e-43
1.394388972687859e-34
8.287313709152983e-44
1.434047798874705e-36
1.451104160984135e-47
-5.3374700152688e-37
1.152880087760957e-34
-3.229282029743733e-38
2.926340903625211e-36
-7.535307566737461e-40
4.199663345871044e-38
-1.121559114486756e-41
3.486792155788816e-40
-1.155687699201623e-43
9.403698452205964e-43
-8.982022434320322e-46
-3.769751275775377e-46
-5.613181913360562e-48
-5.911779628598938e-48
-2.772602788205196e-50
-5.166384297491546e-50
-9.847592417311324e-53
-3.201711795493507e-52
-1.860776315246374e-55
-1.330591442923145e-54
-2.637327785832733e-57
4.640645708532204e-29
-1.00932655006569e-28
4.298467225698013e-40
-7.634571221287535e-29
-2.603800712214687e-40
-2.804294682191722e-30
-4.694111044107499e-40
0
-2.426224651654616e-43
0
2.567385599444949e-44
0
2.509205092997058e-48
0
3.429163453562502e-36
-3.429163454257068e-36
-1.191865719364388e-35
-1.176395426035334e-35
-7.987897845191072e-37
3.094200891794879e-35
-2.258318734811565e-38
7.85776394518016e-37
-4.037646142436181e-40
8.497221264200386e-39
-4.886463668512288e-42
1.883455277944432e-41
-4.495735218979965e-44
-2.353197059177346e-44
-3.219183767714249e-46
-3.864099318167053e-46
-1.742040574848623e-48
-3.63136612923527e-48
-6.45057927741185e-51
-2.331231226148283e-50
-1.22016893925911e-53
-9.666437734389975e-53
-1.877409847938517e-55
1.058670274043372e-05
-5.178495222988717e-05
2.131425655582736e-05
-5.217811026701546e-05
3.214765543078568e-05
-5.281382736220083e-05
4.319965858433234e-05
-5.371925837173668e-05
5.454019022842712e-05
-5.488226676316212e-05
6.624404488892638e-05
-5.629730812596563e-05
7.8394887985266e-05
-5.793835077486503e-05
9.108044318882447e-05
-5.975150078435948e-05
0.0001043935809297401
-6.165380971511701e-05
0.0001184280991574886
-6.350975356313728e-05
0.0001332710504117863
-6.510582931746485e-05
0.0001490047169986271
-6.614685465213061e-05
0.0001656325933784126
-6.612158162545374e-05
0.0001828930217021821
-6.40664422133946e-05
0.0002001457157507764
-5.859268656199738e-05
0.0002164263129341483
-4.812655253903534e-05
0.0002306586930184961
-3.118845084079613e-05
0.0002417803714111003
-6.45346015561555e-06
0.0002485952735013279
2.707660570744499e-05
0.000250497049996909
7.035055255875732e-05
0.0002490463280190786
0.000123864474324828
0.0002565128319188457
0.0001829592236278184
0.0002366359462169435
0.0003274643020174875
1.027412619609378e-05
-6.205907654182234e-05
2.068248075791032e-05
-6.258646277889524e-05
3.124198414900126e-05
-6.337332843693586e-05
4.202342346003441e-05
-6.450069496026799e-05
5.311259881574253e-05
-6.597143881406516e-05
6.460321513377813e-05
-6.778792029675724e-05
7.660252967115852e-05
-6.993765994051232e-05
8.923447503417323e-05
-7.238343901041317e-05
0.0001026479040395116
-7.506722906457765e-05
0.0001170182843274736
-7.788012048577948e-05
0.0001325538004301005
-8.064132613339051e-05
0.0001495269434568229
-8.311994012073689e-05
0.0001681355514463294
-8.473005469793143e-05
0.0001881913299755244
-8.412201033264527e-05
0.0002090206341481295
-7.94217534730302e-05
0.0002295826453048418
-6.868836195481037e-05
0.0002487377100198847
-5.034339970899683e-05
0.0002655940075581845
-2.330978559836612e-05
0.0002796492472582261
1.301499255673972e-05
0.0002888632585938233
6.112725800629072e-05
0.0002964468052456061
0.0001162718104362064
0.0003066144074890668
0.0001727947863182776
0.000230428157538052
0.0003133106958572967
9.923902571483194e-06
-7.198297327624121e-05
1.996401166189894e-05
-7.262656563993683e-05
3.016077683123004e-05
-7.357008674300399e-05
4.058471463935298e-05
-7.492462497155024e-05
5.132779535186517e-05
-7.671451043096697e-05
6.24972535629055e-05
-7.895736753785211e-05
7.422048288977362e-05
-8.166087556953769e-05
8.665326302063531e-05
-8.481620151426373e-05
9.999611732281754e-05
-8.841006014926501e-05
0.0001145025063659397
-9.238647796085844e-05
0.0001305086117747891
-9.664738629824e-05
0.0001485076946944714
-0.0001011188886730416
0.0001688820194138625
-0.0001051041087787781
0.0001914449293415989
-0.0001066845629285345
0.0002154541761374183
-0.0001034306558442044
0.0002397667565112386
-9.300068512972261e-05
0.0002630187275134116
-7.359522574914142e-05
0.0002841621667776008
-4.44532372547309e-05
0.0003055640843658917
-8.387175793266226e-06
0.0003159546836884778
5.073646699868414e-05
0.0003183586080656077
0.0001138677473414093
0.0003194761443592822
0.0001716771726128281
0.0002252296687973512
0.0003246746862518148
9.490514971016007e-06
-8.147347443132167e-05
1.908900470537694e-05
-8.222504081071816e-05
2.883678305533737e-05
-8.331784929103632e-05
3.880716632719205e-05
-8.489499067552354e-05
4.909479348604131e-05
-8.700211761836187e-05
5.981326955198848e-05
-8.967582012447854e-05
7.110186405897336e-05
-9.294944150106433e-05
8.313837417906678e-05
-9.685267578594573e-05
9.616160958966334e-05
-0.0001014332495134766
0.0001104869972386879
-0.0001067118042650529
0.00012657007597003
-0.0001127303783653545
0.0001451265166520944
-0.000119675063918675
0.0001666451406236029
-0.0001266222899288122
0.0001908108059958214
-0.0001308497635039614
0.0002167552596409634
-0.0001293747629138636
0.0002432961605963436
-0.000119541396349714
0.0002692151405374488
-9.951404441766525e-05
0.0002873422181377491
-6.810974430542294e-05
0.0002820557914677043
-9.373805428265883e-06
0.0002596168387735269
2.479446210603187e-05
0.0002606965493434866
4.667196902863093e-05
0.0002911798631500492
9.623642086636862e-05
0.00019869040984429
0.0003177190155652498
8.986016968291454e-06
-9.045946417369866e-05
1.807040771400671e-05
-9.130940315795513e-05
2.728870703068719e-05
-9.253611818908423e-05
3.671354084524506e-05
-9.431979128257827e-05
4.643711551853899e-05
-9.672565535879924e-05
5.657153647487698e-05
-9.981019860955745e-05
6.725719192982985e-05
-0.0001036350464827713
7.867999156139798e-05
-0.0001082754137450123
9.10957213617537e-05
-0.000113848902433519
0.0001048575473254615
-0.0001204735303714658
0.0001205108830099776
-0.0001283835764370155
0.0001389438227041122
-0.0001381075637037358
0.0001605558212009574
-0.0001482337369202558
0.0001846381949412944
-0.0001549317532042169
0.0002103505599570223
-0.0001550870027961161
0.0002306786745038545
-0.0001398696518064436
0.0001723305034390597
-4.669819432906753e-05
6.905976523592636e-05
-9.273383861085053e-06
9.714356619622669e-06
-1.025307511149814e-18
1.424193174378931e-05
0
3.321715875122751e-05
0
8.917902123730669e-05
5.573187624058972e-08
1.179020351253272e-05
0.0002407862390514954
8.423648432994193e-06
-9.888306660488232e-05
1.693075156560182e-05
-9.981645882751794e-05
2.554996102244176e-05
-0.0001011552774459161
3.434936236827527e-05
-0.000103119138805538
4.341318812271589e-05
-0.0001057894225321433
5.284468616209766e-05
-0.0001092416304808609
6.277474397128312e-05
-0.0001135650274327853
7.338288862698002e-05
-0.0001188834671478154
8.492047421987114e-05
-0.0001253863778046998
9.775148815152257e-05
-0.0001333044060099828
0.0001124337543533179
-0.0001430656607703867
0.0001299049358097419
-0.0001555781454480303
0.0001501813194195387
-0.0001685096732158767
0.0001718688644139728
-0.0001766192688092644
0.0001708886293033051
-0.0001409401668006827
6.178540920784254e-05
-2.328323067368833e-05
9.273383861016193e-06
-2.771944514494303e-13
-2.706124946714111e-22
-6.886534311703083e-17
-7.381935143287716e-24
-1.025570741709342e-18
-1.115386800749592e-23
-4.334634748762769e-24
-7.770718094241592e-24
-9.505818778195787e-25
5.573187624059165e-08
-6.324181231666282e-23
0
7.679778414394593e-06
7.824395898209183e-06
-0.0001067073950261413
1.570969901243062e-05
-0.0001077016930736431
2.36813059687652e-05
-0.0001091268125129264
3.180065413244583e-05
-0.0001112384112934606
4.014044676886162e-05
-0.0001141291341630854
4.879023718480786e-05
-0.0001178913308630493
5.786429839015054e-05
-0.000122638986527299
6.752445306826793e-05
-0.000128543504450649
7.800348854775925e-05
-0.0001358652766640712
8.963199054316305e-05
-0.0001449327440183486
0.0001028032507879324
-0.0001562367236298621
0.0001184062422565032
-0.0001711804818150651
0.0001329166778385543
-0.0001830200598001519
0.0001015146023540211
-9.808449920395388e-05
2.328323067368834e-05
-1.183893068838841e-05
-7.129479353331671e-22
9.693436838744667e-22
2.42530765035882e-27
-2.771944521623806e-13
1.508144551108263e-16
-5.737993764868315e-15
4.571766383133037e-20
-7.662257503561074e-19
5.154481176682278e-23
-4.787521366104139e-25
-7.721821684758407e-24
-2.570072700271619e-24
-6.193796266203045e-24
-3.999903688679408e-24
1.200156164843076e-24
1.516267425335506e-24
7.218917746399477e-06
-0.0001139262275363721
1.446712600606851e-05
-0.0001149498150754447
2.177620100199528e-05
-0.0001164357987391134
2.920096091335167e-05
-0.0001186630794199081
3.680205725236855e-05
-0.0001217301331718074
4.465544138664596e-05
-0.0001257446066213
5.28529237316941e-05
-0.0001308363498323167
6.152150733455784e-05
-0.0001372119581072661
7.08453525864279e-05
-0.0001451889697659441
8.104755810819591e-05
-0.0001551347824379317
9.203664027571984e-05
-0.0001672256429976368
9.274711886793527e-05
-0.0001399037203905768
4.559471499328979e-05
-3.341093868648502e-05
1.183889501409063e-05
-1.120978766345823e-06
1.047350874291661e-23
-3.379191613853593e-23
1.175759553425567e-16
-1.175749756054594e-16
2.479191815815557e-13
-6.952485686177718e-12
2.842769185758676e-17
-8.384090250802185e-19
-4.124429264035377e-23
4.148258657870228e-25
2.977898920340808e-24
4.210157397060367e-25
-5.865332049559903e-24
-1.864831911139719e-24
-1.118486635918051e-23
-8.256067027899988e-24
-2.098934274829479e-23
-2.531164436215575e-23
6.64430862517491e-06
-0.0001205704475321348
1.327749324729919e-05
-0.0001215829096356841
1.99499667044608e-05
-0.0001231081802382528
2.671039006926594e-05
-0.0001254234076787192
3.3602220928808e-05
-0.000128621856246976
4.068179543883441e-05
-0.0001328240612838512
4.800872691558237e-05
-0.0001381631666499659
5.566850671556533e-05
-0.0001448716226549525
6.345405502983107e-05
-0.000150148340069812
6.242278822147716e-05
-0.000111714389241168
3.980438184745193e-05
-4.841920958479518e-05
1.33128831558472e-05
-2.212970854947778e-06
1.036521880340373e-06
-1.425627522640299e-23
-4.990051070218539e-23
-8.44568860054508e-08
3.612065830524436e-13
-3.612065831427097e-13
1.367065233138761e-10
-2.732733217626781e-09
8.384092440366852e-19
-4.523322203947441e-15
-2.054253377545843e-30
2.189029897346384e-25
-1.542269064070511e-25
4.109307475513434e-25
-5.664583140372863e-25
7.7438537309425e-25
-2.701497944126449e-24
-7.716277629156926e-25
-1.087274027797401e-23
-1.040366193462368e-23
-1.91420129055176e-23
-2.141107248659798e-23
6.123508096077672e-06
-0.0001266938917061113
1.217901968650925e-05
-0.0001276383512446308
1.825160329850767e-05
-0.0001291806849695493
2.438859986968495e-05
-0.0001315603014822977
3.056880292137584e-05
-0.0001289985572435176
3.569127848178815e-05
-0.0001139332132414743
3.750767361975035e-05
-8.901337138095347e-05
3.258242295135851e-05
-5.701748440696118e-05
1.906341613528583e-05
-3.311356602574856e-06
5.319090091936506e-06
-2.07879918233401e-13
2.212970850047556e-06
-4.390897074955925e-13
1.436623761092289e-23
-4.900222072740863e-15
1.154539723879974e-25
3.984593052985962e-32
4.18920523966639e-08
-7.9290575710709e-07
1.8049750172141e-08
-2.550936144251264e-07
4.523207286401669e-15
-5.861497870534576e-12
1.697735469334449e-26
7.724625387849707e-26
1.277221615410196e-25
1.149076546441242e-25
5.117625353888052e-25
2.740778673032337e-25
1.524155412323609e-24
5.445153206852328e-25
1.951886750781356e-24
-2.457739936203794e-25
-2.010820121284561e-24
-7.23408056339754e-24
-1.373937317831723e-23
-8.790162457898435e-24
4.500833477922772e-06
-4.883617472570571e-05
8.370154914123575e-06
-4.546249207658878e-05
1.129536848609397e-05
-3.916530183589113e-05
1.250335462424157e-05
-7.115175613457213e-07
1.079317722496209e-05
-1.990071669961648e-09
7.791520186335911e-06
-4.073139836770935e-18
4.179772033140537e-06
-2.47867535067708e-16
3.310722815195852e-06
-4.894663401424402e-31
4.041256572008692e-23
-5.631954669168082e-15
1.17414121038137e-23
-2.078799178586399e-13
3.591222749617334e-31
-4.390897078301289e-13
3.109955992283982e-15
-3.45814179603913e-14
3.109955992283981e-15
9.518350840114535e-32
4.406525172646616e-07
-3.243220998263115e-06
5.860037326732162e-12
-3.868204428600913e-07
3.596451242824871e-26
3.058970637070165e-26
8.279068671555908e-26
3.180356171650383e-26
2.850266532557027e-25
4.382578951944835e-26
1.048754970053695e-24
1.069023428823276e-25
3.044946632928974e-24
2.011683635574259e-25
6.066391483931914e-24
-2.025720524739945e-25
6.374638359549712e-24
-3.531886789033096e-24
-6.934209996107247e-24
5.82466522208887e-24
3.434857418527375e-07
5.163609895023664e-24
4.352023195438249e-07
5.857522540961849e-24
4.56772163570171e-07
1.220514325974479e-24
1.9900716699611e-09
-2.996951728871728e-24
1.652523097176706e-25
-5.355921458905909e-22
-1.166355248064282e-35
-4.073139671518625e-18
-8.221037007383932e-34
-2.478675350677081e-16
1.607438659389052e-48
-4.902884438431786e-31
9.016862354046267e-15
-1.064481414557875e-13
1.629056294423569e-13
-8.4248934739173e-13
1.995833481169257e-13
-1.086363165635533e-12
3.13082712330315e-14
-1.820884966738393e-13
3.130827123303651e-14
-5.017266189021818e-27
4.679613167729629e-07
-3.644721530936656e-06
4.435010487948984e-27
-3.39319881006747e-07
3.484653982120047e-26
6.752186274505825e-27
6.788857468700475e-26
7.63444303164863e-27
2.225338598270023e-25
1.011327844303693e-26
7.827839385038196e-25
2.335564158784756e-26
1.924939975700754e-24
3.215326297812243e-26
-1.252744076197575e-23
-2.400131050044646e-25
-1.22689720132621e-21
4.85379283158663e-24
4.212906437458759e-20
-1.536085217042991e-18
-2.635850435314868e-25
9.584737484106824e-24
-6.101791062913571e-25
9.841942674040389e-24
-1.908012344468418e-25
1.920274300734918e-24
7.31120944854406e-48
-3.18775296331857e-24
3.193921212239781e-22
-1.044959064051337e-20
2.886584259252534e-18
-3.35512074791014e-17
1.100480652267132e-16
-1.476071086075334e-15
1.219333393417517e-14
-1.335937543742343e-14
3.601531375016199e-13
-9.369633401096864e-13
5.452362781517492e-13
-1.192944288395669e-12
5.196508553684222e-13
-8.066871529743071e-13
6.971178204380278e-14
-8.953959998247328e-21
1.957957963344674e-09
-1.957888251562629e-09
2.390949724623936e-07
-3.181717270424791e-06
1.015069860986623e-26
-1.313321561662001e-07
2.524199194342025e-26
-4.988434777420768e-27
3.850652599708609e-26
-2.486835843575127e-27
1.129965067276723e-25
-1.357053501274845e-29
3.86685365964928e-25
1.870298018453378e-28
1.088537759637446e-24
-2.52507122063861e-26
8.510256728492333e-40
-2.160637428525728e-25
-4.9674727189471e-23
-2.985541747686059e-40
7.523693959080122e-23
-6.495612823183227e-20
-4.22860968748925e-25
8.953659872964943e-24
-9.370089832797548e-25
8.948416027237647e-24
-2.853709420293804e-25
1.170841740068249e-24
3.553775107794858e-24
-1.180204106111807e-23
2.55946439559928e-19
-1.849878921634124e-18
1.976214623421629e-16
-1.117379586006387e-15
6.216330413331475e-15
-2.258202224207422e-14
8.851229500225284e-14
-1.975947231295175e-13
4.611523670603503e-13
-9.95011274831675e-13
5.417684424710746e-13
-6.990810867449991e-13
4.046650767676525e-13
3.779498429140835e-13
4.054710492923915e-13
-3.34699980360811e-26
2.644540819607653e-08
-6.733327549788663e-08
6.033156375270865e-08
-2.724984715005613e-08
1.397965699947964e-26
1.995674744153641e-27
1.780490917077418e-26
-9.510745047839967e-27
1.869851220223246e-26
-5.758191909478079e-27
4.503623274762918e-26
-3.697278062790089e-27
1.498170205912339e-25
-7.124733785166312e-27
4.333911686972856e-25
-2.804467387100105e-26
9.155026343982685e-25
-1.182085224843676e-25
-2.347544486689601e-24
-3.663392795057923e-25
-2.335749076705095e-25
-1.857914192800036e-22
-2.73520496385762e-25
4.620330947906505e-24
-6.130783887370682e-25
4.439628548039087e-24
-1.255695819173192e-25
-1.617857056705751e-25
9.145529593760983e-22