/*--------------------------------*- C++ -*----------------------------------*\
| =========                 |                                                 |
| \\      /  F ield         | OpenFOAM: The Open Source CFD Toolbox           |
|  \\    /   O peration     | Version:  2206                                  |
|   \\  /    A nd           | Website:  www.openfoam.com                      |
|    \\/     M anipulation  |                                                 |
\*---------------------------------------------------------------------------*/
FoamFile
{
    version     2.0;
    format      ascii;
    arch        "LSB;label=32;scalar=64";
    class       volScalarField;
    location    "0.2";
    object      alpha.water_0;
}
// * * * * * * * * * * * * * * * * * * * * * * * * * * * * * * * * * * * * * //

dimensions      [0 0 0 0 0 0 0];

internalField   nonuniform List<scalar> 
2268
(
1
1
1
1
1
1
1
1
1
1
1
1
1
1
1
1
1
1
1
1
1
1
0.9983614376823359
1
1
1
1
1
1
1
1
1
1
1
1
1
1
1
1
1
1
1
1
1
1
0.9985676754613968
1
1
1
1
1
1
1
1
1
1
1
1
1
1
1
1
1
1
1
1
1
1
0.9998267611625153
1
1
1
1
1
1
1
1
1
1
1
1
1
1
1
1
1
1
1
1
1
1
1
1
1
1
1
1
1
1
1
1
1
1
1
1
1
1
1
1
1
1
1
1
1
1
1
1
1
1
1
1
1
1
1
1
1
1
1
1
1
1
1
1
1
1
1
1
0.9950932434194039
1
1
1
1
1
1
1
1
1
1
1
1
1
1
1
1
1
1
1
1
1
1
0.9892976814875041
1
1
1
1
1
1
1
1
1
1
1
1
1
1
1
1
1
1
1
1
1
1
0.9892296469184405
-8.973960170686122e-36
-1.718302776986638e-34
-1.952090053048554e-33
-1.942086005508035e-32
-1.673727288590624e-32
-7.373017864527001e-34
-9.366711058948472e-36
-5.954299994312654e-38
-2.168803901302807e-40
-5.333543196573362e-43
-9.903317536543072e-46
-2.259304491226091e-48
-8.995870087898844e-51
-3.214962198277155e-53
-1.138832253737064e-55
-4.055125577407239e-58
-1.444233885820812e-60
-4.431163049199953e-63
-7.391147854278182e-66
-1.80689331829526e-33
-3.12970209588615e-32
-3.270197652105901e-31
-2.899456117967782e-30
-1.491811071248607e-30
-6.4465666034897e-32
-9.287625043911597e-34
-7.155368861768732e-36
-3.321961140728004e-38
-1.036465156928154e-40
-2.534110950967977e-43
-1.0056431440604e-45
-4.596175248499134e-48
-2.190933279952287e-50
-1.196658756314993e-52
-6.942549686503014e-55
-3.855806133699905e-57
-1.609057252145718e-59
-3.28793345081292e-62
-1.696002805763067e-31
-2.417570664050359e-30
-2.17290969424262e-29
-1.625905415564387e-28
-5.497326173400157e-29
-2.428950733568506e-30
-4.02076060331633e-32
-3.848962721535591e-34
-2.29236590311485e-36
-9.491896295146475e-39
-3.165323929059019e-41
-1.610276183755758e-43
-8.275257195573846e-46
-4.09983627209544e-48
-2.217007279361529e-50
-1.294138055276902e-52
-7.293010949665166e-55
-3.101945829826064e-57
-6.506272418106575e-60
-1.06889968473555e-29
-1.101341399450101e-28
-7.55865806906837e-28
-4.322578813253325e-27
-1.074929407975411e-27
-5.137435709104384e-29
-9.98856090646468e-31
-1.24327479389484e-32
-9.623807526348636e-35
-5.406458049914937e-37
-2.624109979350746e-39
-1.672754846082083e-41
-9.975897595066714e-44
-5.322617514369326e-46
-2.935114986968419e-48
-1.669440305128722e-50
-9.086104781193938e-53
-3.789448946282456e-55
-7.950368978672786e-58
-4.890250796814138e-28
-3.383303680712786e-27
-1.50747898415058e-26
-5.524368574933118e-26
-1.155180665350591e-26
-6.377471498833059e-28
-1.497435755522455e-29
-2.681630907906736e-31
-2.772242354369611e-33
-2.140133333755861e-35
-1.583903565577782e-37
-1.274502651711528e-39
-8.824383334626973e-42
-5.197975355016671e-44
-3.020273134509649e-46
-1.723283488200318e-48
-9.114960850084375e-51
-3.691990647385834e-53
-7.648940462010177e-56
-1.77535767582275e-26
-8.938855913189245e-26
-2.266472825838172e-25
-3.125103595068904e-25
-6.322103427405909e-26
-4.304012368074594e-27
-1.250944180647266e-28
-3.921570428802839e-30
-5.809058084847016e-32
-6.315750639286597e-34
-6.967764063979719e-36
-7.165128419931206e-38
-5.901689087605919e-40
-4.022802613033613e-42
-2.554455723121949e-44
-1.504201025161575e-46
-7.807435387081749e-49
-3.051740510282689e-51
-6.166988147492132e-54
-2.653882706185324e-25
-1.077586627523632e-24
-1.92210349403826e-24
-6.05070017013843e-25
-1.346908021284259e-25
-1.196444481166236e-26
-4.401229505450278e-28
-3.252611766863397e-29
-8.914309494653464e-31
-1.46043213419969e-32
-2.278775483053158e-34
-2.97343178563794e-36
-2.953076881807219e-38
-2.385133344155839e-40
-1.712282606585998e-42
-1.080543164803439e-44
-5.682424429310066e-47
-2.173218563316773e-49
-4.275572245659755e-52
-7.502784703585261e-25
-1.512863368308229e-24
-3.619310279285945e-36
1.402253628867831e-35
-1.07486905225698e-36
7.615484293247852e-39
6.55435326778307e-40
-2.884960833515327e-43
-8.431064220006431e-30
-2.664966171746357e-31
-5.786883681844863e-33
-9.404258651357007e-35
-1.147237652226768e-36
-1.121087115678325e-38
-9.278016966725562e-41
-6.395815620388167e-43
-3.482950864728625e-45
-1.32521176196878e-47
-2.55079043269807e-50
1
1
1
1
1
1
1
1
1
1
1
1
1
1
1
1
1
1
1
1
1
1
0.9915525118069936
1
1
1
1
1
1
1
1
1
1
1
1
1
1
1
1
1
1
0.9999746682149487
0.9999559580692364
0.999960057951413
0.9999986205394451
0.9998097912627176
1
1
1
1
1
1
1
1
1
1
1
1
1
1
1
1
1
1
1
1
1
1
1
1
1
1
1
1
1
1
1
1
1
1
1
1
1
1
1
1
0.9799984300655632
0.9430493672745027
0.8417923353094168
0.7787264757156536
0.8685743722189037
1
1
1
1
1
1
1
1
1
1
1
1
1
1
1
1
1
0.8677209589027149
0.519233988913571
0.09207135259527381
0.03605860230483689
0.05412895155399056
0.1101057227099519
0.4303089253261098
1
1
1
1
1
1
1
1
1
1
1
1
1
1
0.989351964402707
0.6452364068255121
0.08699595129835627
5.139934220207811e-19
-9.854940887002411e-20
-2.663769173281019e-20
-1.269369941107578e-20
5.760761442167086e-20
0.001068820034361801
1
1
1
1
1
1
1
1
1
1
1
1
1
0.9145396943356188
0.4119268389766406
-7.901773820662997e-18
6.39209706896899e-28
1.124997841245249e-13
7.96895253011406e-16
-1.86053591682536e-20
-3.432434113583426e-20
-3.189417434755823e-20
-5.069759624073793e-19
1
1
1
1
1
1
1
1
1
1
1
0.9871512003781135
0.7573499042048724
0.202247214661177
1.962614977152209e-18
-2.688278123011587e-24
5.468385768792853e-10
1.075067975208396e-11
1.149233958108537e-15
2.881672679289398e-34
-3.970389862096344e-20
-6.445137988054987e-20
-9.289337419349114e-20
1
1
1
1
1
1
1
1
1
0.9711502104409818
0.8030276840872294
0.4046072966254598
0.03364658742022882
-8.487798879166563e-20
-7.095365629264487e-22
7.221733828186714e-07
1.921581366117959e-08
-5.283808128578887e-27
-6.423984619668501e-21
-1.477037154196472e-20
-3.971395824978022e-20
-1.081672916690334e-19
-1.467429999692896e-19
1
1
1
1
1
0.9937026923115821
0.9547238914201358
0.8535499335060156
0.6543948759062702
0.3275105399733938
0.05961737786135807
3.457601188672605e-19
-5.320410458723394e-21
0.0001535297711712389
0.0002012643876684073
1.056185581157091e-05
6.88387807777137e-24
-3.005511194832481e-21
-6.235579255633332e-21
-1.770175427178938e-20
-4.653236657827807e-20
-1.101715080468556e-19
-1.449836238490675e-19
0.841402822718696
0.8221944767977595
0.7824836288665209
0.716304557782831
0.6007653198579379
0.4361059687570882
0.2631181716717551
0.1077966049336833
4.314337975953555e-18
-3.831295089224979e-20
1.777844831400049e-19
1.822739275145027e-11
-1.398998900850511e-28
0.01074071585510669
0.001637847600423556
3.699842685193979e-22
-1.343272345466907e-21
-1.910055032802385e-21
-4.56673904740779e-21
-1.325622489672085e-20
-3.365755758713931e-20
-6.758713901637356e-20
-8.576772733570124e-20
0.0935876867810434
0.07843597598813233
0.05206155869057915
0.01880793457631392
-2.696583623372951e-19
1.001134512610461e-21
-2.538277090224222e-30
9.584881495981739e-45
-2.135243768292647e-26
8.974827359144282e-10
1.851064798305864e-09
2.586937194186452e-10
-3.475063289246829e-28
0.01564749629461705
0.002083643861937088
-5.820589381200049e-22
-8.125397021168916e-22
-9.994865365804927e-22
-2.395384204725207e-21
-6.848383830132292e-21
-1.68363622288086e-20
1.010456653776802e-34
1.561954190389255e-16
-3.427762412375352e-20
-3.927379086700258e-20
-7.869763209179521e-21
-2.741039087254282e-39
3.206556794485176e-32
1.630073284776733e-14
1.083374873846588e-12
2.793207748161848e-27
1.606990761739422e-09
5.25675538808318e-09
5.648584950046134e-09
7.144628485257498e-10
-9.996892704979177e-28
0.01553275294530132
0.001793733675838443
-3.878957033574351e-22
-4.415556743781337e-22
-4.537568615940888e-22
-1.005538518614213e-21
-2.879708338240906e-21
-7.276495445969796e-21
-1.335383701120727e-20
3.276950446383412e-18
-6.57501999649296e-20
-6.722548605286783e-20
-1.279556169091616e-20
1.784591010182053e-20
1.965416750955339e-15
1.422944583261696e-12
3.303327601656204e-11
2.381496197551738e-10
5.351858329554493e-09
6.197590549194795e-09
4.67094482923701e-09
5.460444954831447e-10
1.736028914716428e-06
0.00583449286281313
0.000670301531874704
-2.769322921322399e-22
-2.443374621363993e-22
-1.950843217205541e-22
-3.682335361463978e-22
-1.04963451172662e-21
-2.755455675464806e-21
-5.553342760951701e-21
-7.660845339718029e-21
-6.077945565749306e-20
-6.002028048787446e-20
-7.749488417255563e-21
5.087606281366418e-18
8.886428457858338e-14
1.568074117037174e-11
1.958187873486078e-10
1.155786353820511e-09
5.007966057222367e-09
3.707770645301693e-09
-1.793087184886573e-23
4.245756281031251e-22
0.0006131614754335742
2.902238724933264e-22
-4.368140021056966e-23
-1.952666236049419e-22
-1.337699031272109e-22
-8.160313738364939e-23
-1.200472149004897e-22
-3.228101041890217e-22
-8.742667075316093e-22
-1.88769223378348e-21
-2.85042677634155e-21
-3.103454373098051e-20
-2.924741866575951e-20
2.046081680985288e-22
5.179061780704213e-16
1.161316025806226e-12
5.753289600228399e-11
4.19668651376462e-10
1.37802360119225e-09
3.659894781519642e-09
3.647781791285582e-09
4.936211378107405e-06
2.324252125070938e-05
0.0006340883047068178
8.29834191727586e-06
-6.677932415347339e-23
-1.317041854720322e-22
-7.098422388316194e-23
-3.31609424565532e-23
-3.527550368022386e-23
-8.392542652213569e-23
-2.276465815769623e-22
-5.160907730497836e-22
-8.264759079878001e-22
-7.01378141265935e-21
-6.2670122737159e-21
1.555776592874429e-18
2.374110603347192e-14
6.186863082013468e-12
1.00039685368829e-10
4.751358904536307e-10
6.347046809945855e-10
1.428476403218051e-07
2.899839280824499e-05
0.0001071792829372853
5.475177340561136e-05
7.767250209468165e-05
-6.232700304542409e-21
-6.192881766166184e-23
-8.121512078538252e-23
-3.578729454888228e-23
-1.299445698456957e-23
-9.582186830731405e-24
-1.865419733825996e-23
-4.868905127405375e-23
-1.126266658750245e-22
-1.858556747866005e-22
3.953181157379014e-27
2.092229129099235e-21
2.050592153154566e-16
2.66219840946386e-13
1.363801386754077e-11
1.075912545299219e-10
2.018420124185411e-10
3.48765605234158e-16
3.578546645963964e-06
0.0001102827407352413
0.0001293082230052817
2.876863201279994e-05
-1.081477350065201e-21
-2.249126531661768e-23
-4.137036658520482e-23
-4.425911782750672e-23
-1.680620420747156e-23
-4.789522122782174e-24
-2.446194696345267e-24
-3.593119240482899e-24
-8.621584001851341e-24
-1.978453330912783e-23
-3.281460721934175e-23
1.118484522305317e-24
2.431728017224275e-19
3.105754357214325e-15
7.699702857530183e-13
1.528483396914939e-11
3.870900248315054e-11
1.581282293938637e-11
3.452464833626116e-16
7.297158906893984e-06
0.0001205048597744146
0.0001270340505556133
0
-1.037694620837951e-23
-1.678150123727834e-23
-2.27985940266938e-23
-2.125922690949475e-23
-7.373197078586056e-24
-1.615155917569804e-24
-5.886924967128513e-25
-6.084616033665012e-25
-1.27453358527105e-24
-2.827446426895424e-24
-4.62586326347279e-24
1.642577473041872e-23
3.011239622458251e-18
9.219505812801439e-15
8.685160105758222e-13
4.109152049143682e-12
3.85665153401688e-12
1.274412194514346e-13
3.487656059625604e-16
9.58167759675707e-07
2.380235144361627e-05
4.165435486227312e-05
3.95657929311798e-09
-7.133950857724417e-25
-1.32209253590463e-23
-1.252257575708617e-23
-9.634978043212751e-24
-3.178780968374586e-24
-4.874958485314762e-25
-1.321397393704344e-25
-9.20508422765937e-26
-1.585719726078595e-25
-3.315624324923907e-25
-5.277951276969273e-25
5.533686994196403e-23
8.362399086396905e-18
7.335679367579783e-15
1.506890581548193e-13
3.580614434890288e-13
2.772204911159013e-13
1.655691390734854e-11
1.104232236093653e-08
2.037157709655894e-08
4.300810645907867e-26
1.880983463399873e-08
7.119746027970454e-06
2.448606325853368e-07
-3.60364602956795e-27
-8.449947073833368e-24
-4.98976891128236e-24
-1.51324499640851e-24
-1.297504727487123e-25
-2.710439717008095e-26
-1.264113241009381e-26
-1.675596948921841e-26
-3.210324384227592e-26
-4.918879198664565e-26
1.353536375603037e-23
6.577865475438096e-19
3.703345042248557e-16
7.973778408183543e-15
2.000332638722395e-14
1.692736284202051e-14
3.645788785408809e-15
1.057019429814371e-25
-1.865759760192001e-32
7.069190666218233e-26
1.06141034651527e-07
1.379284913198486e-06
1.752358254983492e-06
4.293653778705311e-08
-9.671215631178728e-24
-3.251243212964448e-24
-8.552003492827275e-25
-3.017390703816237e-26
-4.96221280669916e-27
-1.592360474355337e-27
-1.521395907436163e-27
-2.57924007656518e-27
-3.765802533825877e-27
-2.634991573850797e-29
-5.512290068164169e-28
-3.729362633157217e-27
-4.146502697362814e-37
5.668544377867409e-19
4.108329519827232e-17
2.219878492581082e-16
6.327602409380914e-16
2.632641041094009e-14
-5.16469859460983e-26
1.14801645217601e-08
6.886062752396552e-08
2.056455503175809e-07
7.968765394746937e-08
-2.915576932406276e-29
-2.064018499285723e-24
-4.95848006389191e-25
-6.082261029880889e-27
-7.935848308439653e-28
-1.838270713623871e-28
-1.204939637422766e-28
-1.728110560579266e-28
-2.376850721722449e-28
-1.203312667096177e-29
-3.069982449335569e-28
-3.560576732829321e-27
-2.467225550916526e-26
-1.135784453274507e-25
-3.355281558653635e-25
1.804375284473069e-22
1.783310742778237e-16
1.266928882416933e-12
4.437833743762146e-11
1.607362326278507e-26
3.863467855748015e-26
4.181560255647745e-09
1.800858544767372e-08
2.855089384552379e-09
-9.772357652115148e-25
-2.329696742477471e-25
-1.04820649216089e-27
-1.088178531057613e-28
-1.919378607395347e-29
-8.470422793583177e-30
-9.719637144386627e-30
-1.240356661426194e-29
-8.293165728232491e-31
-2.343863378064785e-29
-3.056405574188843e-28
-2.43122683537984e-27
-1.322939611187173e-26
-5.219699523344437e-26
-1.502387076157783e-25
-3.55872332139839e-25
-6.77249781134303e-25
-1.022503294295569e-24
-1.181489392436608e-24
-9.53862814450511e-25
-4.259724461243319e-25
2.063362152392941e-27
1.276744932260446e-10
-3.234010300647064e-25
-7.516920368920391e-26
-1.506707705840237e-28
-1.256110066137182e-29
-1.77548691495769e-30
-5.369590669348382e-31
-4.633962887875972e-31
-5.369267592118152e-31
-1.544484646949194e-32
-5.031757573453634e-31
-7.656359218531102e-30
-7.21241887983396e-29
-4.721374821271643e-28
-2.287821808325918e-27
-8.54737976242383e-27
-2.53418491679876e-26
-6.086380586675511e-26
-1.197805222015815e-25
-1.926594259694103e-25
-2.463450578830496e-25
-2.330693390720334e-25
-1.4411121327716e-25
-7.111512748155797e-26
-7.978520749628849e-26
-1.507340360089037e-26
-1.743585365038683e-29
-1.194493589093953e-30
-1.422906178080237e-31
-3.093509330616719e-32
-1.89947968818105e-32
-1.936893116982973e-32
-1.149668085581954e-34
-4.567647206850427e-33
-8.470001608863847e-32
-9.735763732758099e-31
-7.789419094291817e-30
-4.621031688154198e-29
-2.116563562887188e-28
-7.701666742446246e-28
-2.273955940995151e-27
-5.531463165587738e-27
-1.118730321921293e-26
-1.884177999923927e-26
-2.618650051947548e-26
-2.923562984226808e-26
-2.455754071859837e-26
-1.290804351509279e-26
-1.739590432895992e-27
-1.558330059014351e-30
-9.111422981856553e-32
-9.668405819631551e-33
-1.611447761416025e-33
-6.820486815579076e-34
-5.861946277910804e-34
-7.728749889945281e-37
-3.452307519681734e-35
-7.226433229379299e-34
-9.432271176493504e-33
-8.628609602533471e-32
-5.896009988718428e-31
-3.133508450692173e-30
-1.332215055993929e-29
-4.624480277407173e-29
-1.329848047475456e-28
-3.195648087759545e-28
-6.425597789905832e-28
-1.070324726618501e-27
-1.431527919493846e-27
-1.420968425289599e-27
-8.455622320049476e-28
-1.113069229082611e-28
-1.028293468603956e-31
-5.409179045285569e-33
-5.452794321721896e-34
-7.463500991278299e-35
-2.189508906987155e-35
-1.503015287841603e-35
-1.254587075055707e-39
-6.296690838370448e-38
-1.484326010248809e-36
-2.190440790308834e-35
-2.276014644885745e-34
-1.775210892437211e-33
-1.082090834358632e-32
-5.298992155308134e-32
-2.125712425418781e-31
-7.078265582862693e-31
-1.969733431478215e-30
-4.573406115966942e-30
-8.731448114106101e-30
-1.322314487788365e-29
-1.477880579804872e-29
-1.063167499764215e-29
-3.746857231468133e-30
-4.762106454007171e-33
-2.424419850325296e-34
-2.498406461841155e-35
-3.004843564588459e-36
-6.381077125492253e-37
-3.310442531461413e-37
-4.55930373825506e-46
-3.614169876062599e-44
-1.373316766229365e-42
-3.333203458563365e-41
-5.808856134271735e-40
-7.751323592192849e-39
-8.254274154394334e-38
-7.223176501254144e-37
-5.309159446098323e-36
-3.331495654815409e-35
-1.804118787990199e-34
-8.465628591569112e-34
-3.421809786782111e-33
-1.165252837809514e-32
-3.176136082578292e-32
-6.200017569536435e-32
-6.500953472824309e-32
-1.472351317547196e-34
-7.969126075648817e-36
-9.105194227354275e-37
-1.027709665106944e-37
-1.69266923303157e-38
-6.380013586270566e-39
-7.120974521341751e-49
-6.285131818777236e-47
-2.657734549861429e-45
-7.192068701862281e-44
-1.401493902159078e-42
-2.098080567681147e-41
-2.514806751497608e-40
-2.484138696688702e-39
-2.06480572595729e-38
-1.464939698532628e-37
-8.93852324864626e-37
-4.686519829429759e-36
-2.085406932091547e-35
-7.645519163735542e-35
-2.178685248024533e-34
-4.297809959810289e-34
-4.401460101262238e-34
-3.032818730952965e-36
-1.86670210282014e-37
-2.587018697995954e-38
-2.923979455046442e-39
-4.035613486692558e-40
-1.098791118825024e-40
-4.365837225575102e-52
-4.210624745971701e-50
-1.949774223953238e-48
-5.793562358011689e-47
-1.242921442926003e-45
-2.053306194347522e-44
-2.720629529062234e-43
-2.971997007662982e-42
-2.725774801894608e-41
-2.119810698327285e-40
-1.400034846396772e-39
-7.794818039035803e-39
-3.594277610041329e-38
-1.329681733057208e-37
-3.731924540836716e-37
-7.131572728948689e-37
-7.094194718154759e-37
-3.908842648773494e-38
-3.023359393405754e-39
-5.628140479215792e-40
-6.792962507488716e-41
-8.45460130221463e-42
-1.720392813461947e-42
-6.293097546973529e-57
-5.718767662934732e-55
-2.469183122679409e-53
-6.781034432455146e-52
-1.335763921897159e-50
-2.021925907184787e-49
-2.470957815056518e-48
-2.544209717419581e-47
-2.29826420446812e-46
-1.887788812425004e-45
-1.442635450463537e-44
-1.028574394386054e-43
-6.730597491116667e-43
-3.92186142523013e-42
-1.948781244583422e-41
-7.726871506501027e-41
-2.169249152420376e-40
-3.258816860155456e-40
-3.264177661021873e-41
-9.227274344115031e-42
-1.26753418763059e-42
-1.51772625285923e-43
-2.45912293100446e-44
-2.114780466304243e-61
-3.067142574557132e-59
-2.109117853137809e-57
-9.238175443899028e-56
-2.910393049722491e-54
-7.054467177293536e-53
-1.373811903255996e-51
-2.215174212334929e-50
-3.021575234592676e-49
-3.538711665988051e-48
-3.589788907352724e-47
-3.16195902735782e-46
-2.4050560908218e-45
-1.553807849026042e-44
-8.248333833191168e-44
-3.386494300520556e-43
-9.592985580421552e-43
-1.438615823138091e-42
-2.471411917133426e-43
-1.12418341223191e-43
-1.871682031127248e-44
-2.28060577997141e-45
-3.166598938055967e-46
-1.312505105193374e-64
-2.112426756550917e-62
-1.610999250671088e-60
-7.827091367663819e-59
-2.736550694433946e-57
-7.366156277481456e-56
-1.593823857608368e-54
-2.854596221005573e-53
-4.317389423199162e-52
-5.58325030574591e-51
-6.2090659428763e-50
-5.931099106988356e-49
-4.821936533993081e-48
-3.271112132461221e-47
-1.78785669148405e-46
-7.417668153281671e-46
-2.10028157702134e-45
-3.238644339935574e-45
-1.298791920840239e-45
-1.004675783371239e-45
-2.156969815791726e-46
-2.80895509695404e-47
-3.577234872727646e-48
-4.427157769659747e-68
-7.827846995001221e-66
-6.550745372847998e-64
-3.491249467915397e-62
-1.339063495220285e-60
-3.95492989430642e-59
-9.386196257203437e-58
-1.840488520684475e-56
-3.033976959038752e-55
-4.243585641822729e-54
-5.04936961994686e-53
-5.095420712009607e-52
-4.321368868467277e-51
-3.02846021769206e-50
-1.704388916020227e-49
-7.350661652284396e-49
-2.251737059215046e-48
-4.350281612318636e-48
-4.837363700457355e-48
-6.503076463259044e-48
-1.913101240646915e-48
-2.779682580005039e-49
-3.433891215826145e-50
-5.97699985991041e-72
-1.137079070152962e-69
-1.021272279587373e-67
-5.836868326215702e-66
-2.40325809264266e-64
-7.640956684584229e-63
-1.958830732979777e-61
-4.157151325590749e-60
-7.403226226496848e-59
-1.110535471749275e-57
-1.399495932922245e-56
-1.472705086091387e-55
-1.285948019681603e-54
-9.296061847185125e-54
-5.613020253276345e-53
-2.906020258489698e-52
-1.323205940983704e-51
-5.09777986510968e-51
-1.458528848595846e-50
-3.015528399983745e-50
-1.285602305473082e-50
-2.163330027968463e-51
-2.70977140182297e-52
-1.217814847188514e-76
-2.523950768339784e-74
-2.468721739339472e-72
-1.536073487798813e-70
-6.894452740598226e-69
-2.402332367445389e-67
-6.831673500770061e-66
-1.643482913334847e-64
-3.432039500119934e-63
-6.339554528713064e-62
-1.050739029165186e-60
-1.57781118758592e-59
-2.14942885716611e-58
-2.625382263470762e-57
-2.798614824515135e-56
-2.498616013407956e-55
-1.770972981361516e-54
-9.370588202458487e-54
-3.542708284822205e-53
-9.858806605173023e-53
-6.409814599008402e-53
-1.289744797537205e-53
-1.696289193025572e-54
-2.707893473193188e-81
-7.741181284863891e-79
-1.058419323868649e-76
-9.334397640737462e-75
-5.99997345413309e-73
-3.003313327114947e-71
-1.219246217021501e-69
-4.123422833567541e-68
-1.183412037286696e-66
-2.919907526558915e-65
-6.245541777838249e-64
-1.161826370239945e-62
-1.87441203149937e-61
-2.59746724850109e-60
-3.040061645447282e-59
-2.934855664233728e-58
-2.27262960399646e-57
-1.379383980213516e-56
-6.521882671041136e-56
-2.238519010192366e-55
-2.298208687658186e-55
-5.675627679944553e-56
-8.057948052486947e-57
-9.066810346610198e-85
-2.76808501202248e-82
-4.042880531361613e-80
-3.81074160281017e-78
-2.617920902278082e-76
-1.399419741635121e-74
-6.057621433334988e-73
-2.179840777476356e-71
-6.642021441794864e-70
-1.736226852952691e-68
-3.926427557296263e-67
-7.707735842608375e-66
-1.310497764699818e-64
-1.915487238540015e-63
-2.379694847618913e-62
-2.481148694749017e-61
-2.149166906032432e-60
-1.538049426487135e-59
-8.868324627536863e-59
-3.506805691806233e-58
-5.608968847083023e-58
-1.735214054851303e-58
-2.71862046929488e-59
-1.958240198754004e-88
-6.372430759482279e-86
-9.922607140634838e-84
-9.977644634643482e-82
-7.312282467946498e-80
-4.165952848750716e-78
-1.918974223561377e-76
-7.336586036375878e-75
-2.372082706575408e-73
-6.575380210865071e-72
-1.577056879112721e-70
-3.287431187597929e-69
-5.956288097919273e-68
-9.350910428514212e-67
-1.26634438333462e-65
-1.472243095443266e-64
-1.459225640781502e-63
-1.21165085350306e-62
-7.973009564121156e-62
-3.538240001107247e-61
-8.303576816929756e-61
-3.275632625174413e-61
-5.766298016877245e-62
-1.28796582429629e-92
-4.572887462507814e-90
-7.779849774123686e-88
-8.551400126919051e-86
-6.847923322230377e-84
-4.259132490233717e-82
-2.139682475090061e-80
-8.917160885942383e-79
-3.14390350019125e-77
-9.516093080304867e-76
-2.498366777177067e-74
-5.723859609419623e-73
-1.147367776500259e-71
-2.013161091169111e-70
-3.086341624729182e-69
-4.105953123438315e-68
-4.657569642916419e-67
-4.350927202204189e-66
-3.142863222314724e-65
-1.571724503195647e-64
-5.385043899630199e-64
-2.794903446372572e-64
-5.615555711075223e-65
0.9964669578627872
1
0.4699969754496157
2.568681713994928e-35
0.9994563496923634
1
0.9448373655584799
0.737331140176407
1
1
1
1
1
1
1
1
0.815868038471645
1
1
1
0.07255485808034612
0.2409190539630229
0.7136704715444964
1
9.263040712639851e-19
7.358596558359105e-19
0.03544122387564977
0.6375634109933904
-1.532012564897028e-19
-9.911139689739095e-20
6.597894102112279e-19
0.1442890882565658
-1.645155643619741e-19
-1.777869346733642e-19
-2.851878936323424e-19
-4.314258640597351e-18
-1.636329563492533e-19
-2.215250228536954e-19
-5.862586709958938e-19
0
-1.056187374659324e-19
-1.220343125651619e-19
-1.095947373459942e-19
0.0003489752330275286
1.261973883967959e-14
7.462117283712878e-14
6.622423530374305e-14
9.469275703382413e-27
3.836160434058766e-16
1.702735973462235e-14
8.623230495916634e-13
-1.607362326665532e-26
6.575081269592189e-19
2.782765574886149e-15
7.131583748712711e-13
6.60030951235705e-12
-2.710720801579676e-21
5.730285375212511e-17
4.676222576494385e-15
1.905142086425479e-14
-7.985978940251674e-22
-5.751352756395634e-22
3.026559473571711e-19
2.656472986774071e-19
-1.750052085647547e-22
-1.251917457745434e-22
-6.872251763561607e-23
-5.153153507759299e-37
-2.936717767577148e-23
-2.031458177678978e-23
-1.092051030957874e-23
-4.220505245216926e-24
-3.861793302955307e-24
-2.561501019342531e-24
-1.326864111698568e-24
-5.029604072325441e-25
-4.060205336241157e-25
-2.568389083294423e-25
-1.279885706499286e-25
-4.70634045096094e-26
-3.46384383426756e-26
-2.084472701108617e-26
-9.975874338128059e-27
-3.560265030906061e-27
-2.422755262994615e-27
-1.386941753391477e-27
-6.368276386826315e-28
-2.202260787593108e-28
-1.399686439056157e-28
-7.635233215276421e-29
-3.363174393919846e-29
-1.12505861799334e-29
-6.718225223346442e-30
-3.501510868390012e-30
-1.480606991462169e-30
-4.786589215013263e-31
-2.692762578373831e-31
-1.34509524141144e-31
-5.466811964859067e-32
-1.707689013853943e-32
-9.056897251779984e-33
-4.349281878341895e-33
-1.701733349325558e-33
-5.13846577464512e-34
-2.568761123483775e-34
-1.189066248436552e-34
-4.486917792260476e-35
-1.310650175931848e-35
-6.174934897584726e-36
-2.760525137318378e-36
-1.006405751198822e-36
-2.846537083170555e-37
-1.265003371905592e-37
-5.465039401448779e-38
-1.927790662412439e-38
-5.284913679691375e-39
-2.222575763289241e-39
-9.264380782239383e-40
-3.164434877599106e-40
-8.415475465240418e-41
-3.375024796782073e-41
-1.350618054122558e-41
-4.464318964547301e-42
-1.152185283670967e-42
-4.471062587667102e-43
-1.701313452584728e-43
-5.426676777754993e-44
-1.358583794807048e-44
-5.220060954846802e-45
-1.861276364653567e-45
-5.696522998493551e-46
-1.380860068958165e-46
-5.415178645194416e-47
-1.777258002900957e-47
-5.173558446626738e-48
-1.209906729546249e-48
-4.997696040680343e-49
-1.484952462616263e-49
-4.067347312582614e-50
-9.128267550183101e-51
-4.061158966786168e-51
-1.081777138698223e-51
-2.759619407638349e-52
-5.906749046964931e-53
-2.837512036200883e-53
-6.774668888805797e-54
-1.598986676798056e-54
-3.246249689926962e-55
-1.643754373287245e-55
-3.545615680952214e-56
-7.733813128249989e-57
-1.484656253485781e-57
-7.510423459957223e-58
-1.481355955477598e-58
-2.997287203955278e-59
-5.441208450190299e-60
-2.517185612954624e-60
-4.598098300312138e-61
-8.686383335845848e-62
-1.495342912666018e-62
-5.451162810204789e-63
-9.335727635321926e-64
-1.659322423174364e-64
-2.720973934004869e-65
-5.597454285439731e-66
-9.103633190863429e-67
-1.536514056446098e-67
-2.420642799014996e-68
1.913205433186885e-34
6.757128532755152e-17
3.066461280955817e-16
2.237970355375343e-17
5.014363473065935e-18
5.81940835846553e-18
6.337104463220977e-21
1.977011439962112e-25
1.525249277525148e-31
-2.937895899664463e-30
-1.060942150609848e-31
-2.267624837206197e-33
-3.461753413875386e-35
-4.3987963919634e-37
-4.585087859734048e-39
-3.825112012202735e-41
-2.402721216670144e-43
-1.002395780284643e-45
-2.02989526287906e-48
0.06946489353368886
3.079323881588342e-18
5.903984472012245e-15
3.142100108756835e-16
7.313232842626112e-16
6.005687135853289e-15
1.541423267947512e-16
6.543595211931971e-20
1.141776831796279e-25
6.09947004289747e-45
-2.145179146343624e-30
-7.382828607546229e-32
-1.572258140048079e-33
-2.697349786187884e-35
-3.780284928734377e-37
-4.14306282819247e-39
-3.274308127644126e-41
-1.628814636887195e-43
-3.746730722371193e-46
0.4967632829238639
0.001232029323977524
1.34093044968336e-14
7.644100636401582e-16
3.741549515713064e-15
4.455634329026104e-13
8.162209768301295e-14
8.167157977667157e-17
3.624552489305181e-22
8.312530989092205e-28
-1.421024977678836e-29
-1.066183845976637e-30
-3.239652060074699e-32
-6.416788813200629e-34
-9.150512284883714e-36
-9.450085446639995e-38
-6.736647038847287e-40
-2.960727367658669e-42
-5.99059492364304e-45
0.8782945891836725
0.1041548846930624
3.273198643153708e-20
1.142170289117379e-18
-6.109247155698359e-27
3.970022818926421e-11
1.600051867142976e-12
8.557576984455802e-16
6.702275801951258e-21
4.581195674457165e-26
1.208321618555466e-31
-5.556686068379954e-30
-2.519774420075097e-31
-5.739523540173676e-33
-8.400868033915503e-35
-8.261126835076025e-37
-5.339237184818698e-39
-2.069589162831163e-41
-3.654304015324717e-44
1
0.2366281992800859
-2.766388736359613e-19
3.648042246832118e-08
7.763459472232904e-08
8.149547027457828e-09
2.54075693116586e-20
1.057951555373237e-19
4.520939590512246e-21
4.78371715568536e-24
3.008509397942735e-29
-3.793354639622597e-30
-2.994245499363817e-31
-9.699496268824115e-33
-1.759363289151903e-34
-1.949983972295892e-36
-1.326151293486557e-38
-5.141093603795713e-41
-8.760032620756867e-44
1
0.4364859523719549
2.326905547781902e-18
1.791598541024548e-07
2.717238591477075e-07
4.573720747603216e-08
1.991505626649952e-20
3.555409732272532e-18
3.777710261911834e-19
7.107325804264054e-22
4.826727409740408e-27
-9.820452971098025e-46
-5.356885846815172e-32
-2.91638382777651e-33
-7.12888625251358e-35
-9.897038204486915e-37
-8.048209382741224e-39
-3.584789140570588e-41
-6.764859971803595e-44
1
0.752988624884109
0.07755492797956139
7.717812711347485e-09
8.53873415237226e-09
1.884959920454968e-09
1.081695330980867e-11
2.176963601564608e-18
2.175846081860037e-18
6.019047411252672e-20
1.867009267857249e-24
4.36111834181475e-30
8.509305305381515e-49
-4.173720880329059e-34
-1.32197176368596e-35
-2.170436060737479e-37
-2.020812241051751e-39
-1.010887957619493e-41
-2.108540011204576e-44
0.9585149788783633
0.9285298345402646
0.1377083299537922
7.46316938841716e-09
7.490925303380701e-08
2.30215834557293e-08
5.016365366767941e-18
4.917241449674985e-18
2.588287397246393e-19