/*--------------------------------*- C++ -*----------------------------------*\
| =========                 |                                                 |
| \\      /  F ield         | OpenFOAM: The Open Source CFD Toolbox           |
|  \\    /   O peration     | Version:  2206                                  |
|   \\  /    A nd           | Website:  www.openfoam.com                      |
|    \\/     M anipulation  |                                                 |
\*---------------------------------------------------------------------------*/
FoamFile
{
    version     2.0;
    format      ascii;
    arch        "LSB;label=32;scalar=64";
    class       volScalarField;
    location    "0.2";
    object      alpha.water;
}
// * * * * * * * * * * * * * * * * * * * * * * * * * * * * * * * * * * * * * //

dimensions      [0 0 0 0 0 0 0];

internalField   nonuniform List<scalar> 
2268
(
1
1
1
1
1
1
1
1
1
1
1
1
1
1
1
1
1
1
1
1
1
1
0.9984527204234372
1
1
1
1
1
1
1
1
1
1
1
1
1
1
1
1
1
1
1
1
1
1
0.998532715187457
1
1
1
1
1
1
1
1
1
1
1
1
1
1
1
1
1
1
1
1
1
1
0.9997676842196044
1
1
1
1
1
1
1
1
1
1
1
1
1
1
1
1
1
1
1
1
1
1
1
1
1
1
1
1
1
1
1
1
1
1
1
1
1
1
1
1
1
1
1
1
1
1
1
1
1
1
1
1
1
1
1
1
1
1
1
1
1
1
1
1
1
1
1
1
0.9999968965563892
1
1
1
1
1
1
1
1
1
1
1
1
1
1
1
1
1
1
1
1
1
1
0.9905409338079686
1
1
1
1
1
1
1
1
1
1
1
1
1
1
1
1
1
1
1
1
1
1
0.9895317905510912
-1.216530529024041e-35
-2.285399036837513e-34
-2.5772575247058e-33
-2.532762929897512e-32
-2.445981780973575e-32
-1.148619790743326e-33
-1.512890425407129e-35
-9.818688543948488e-38
-3.580791804318724e-40
-8.631926949798899e-43
-1.508235728582684e-45
-4.323772727567507e-48
-1.701466510009441e-50
-6.076992703544444e-53
-2.247598699313384e-55
-7.79245704444221e-58
-2.535217409183362e-60
-7.103280738070131e-63
-1.147628384272884e-65
-2.405009488438632e-33
-4.100137695323504e-32
-4.219906565600645e-31
-3.653954929233076e-30
-2.082625853481926e-30
-9.601490191440204e-32
-1.434080450442328e-33
-1.133762077524965e-35
-5.285982566775184e-38
-1.632993223690351e-40
-3.863476424276477e-43
-1.992154086070091e-45
-9.432471232392209e-48
-4.349210321576382e-50
-2.222983059265966e-52
-1.191594050841198e-54
-6.154708062268652e-57
-2.486110910676268e-59
-5.123952590580842e-62
-2.163726707406022e-31
-3.070697562331935e-30
-2.711260084175403e-29
-1.961466539421857e-28
-7.258115666953001e-29
-3.424631596097059e-30
-5.876118150024391e-32
-5.855963419721098e-34
-3.516532197686183e-36
-1.449545325046363e-38
-5.243220422671617e-41
-3.095735994442006e-43
-1.656531879038619e-45
-8.235149398163511e-48
-4.241010191622852e-50
-2.268409685857785e-52
-1.178293921638192e-54
-4.830044000598714e-57
-1.018957028897566e-59
-1.275472951039039e-29
-1.327116208503045e-28
-8.995670546159609e-28
-4.941612658932822e-27
-1.324653425176577e-27
-6.741279469336196e-29
-1.35610497880354e-30
-1.809426160165115e-32
-1.424782226574358e-34
-7.99296770232681e-37
-4.470942161691131e-39
-3.127704993953686e-41
-1.93000831089884e-43
-1.060387931551336e-45
-5.721057908454435e-48
-3.025328226069229e-50
-1.515364623406973e-52
-6.032951338884551e-55
-1.262157319652658e-57
-5.404331060972175e-28
-3.766889895536988e-27
-1.676229746878063e-26
-5.926762007698664e-26
-1.30827756093031e-26
-7.613646254232041e-28
-1.841451051583694e-29
-3.673819792132028e-31
-3.954854811544623e-33
-3.065695373501499e-35
-2.647335573784812e-37
-2.293196738604074e-39
-1.647643281493803e-41
-1.017786588731388e-43
-5.906772203494125e-46
-3.196515618649128e-48
-1.571664066381274e-50
-6.058411125451749e-53
-1.241981542983118e-55
-1.848812455948841e-26
-9.121403949995079e-26
-2.28292506904059e-25
-3.11882124636232e-25
-6.479062417965381e-26
-4.569584094961557e-27
-1.359955698065753e-28
-4.792773957496026e-30
-7.887498500872634e-32
-8.836344894063483e-34
-1.128081597509637e-35
-1.228850528413291e-37
-1.056397560957989e-39
-7.654134584921088e-42
-4.938499797763716e-44
-2.824921544336092e-46
-1.391189653529788e-48
-5.20018614491207e-51
-1.034111208334529e-53
-2.65804330381634e-25
-1.052017575755457e-24
-1.83115969296e-24
-5.573098583462702e-25
-1.232896060712442e-25
-1.110280276342461e-26
-4.159108758190982e-28
-3.123064415502845e-29
-1.093923032700636e-30
-2.06600466612861e-32
-3.572178646273034e-34
-4.880437471057771e-36
-5.053716278950974e-38
-4.365668808695773e-40
-3.22525816442858e-42
-2.020296897912725e-44
-1.033149384996414e-46
-3.834631464669625e-49
-7.439146951062608e-52
-6.974765981756298e-25
-1.365647625695703e-24
1.00888880518177e-34
1.33603978944104e-35
2.07159140778741e-35
1.718897967171203e-38
1.519254733643845e-38
-6.655977664093519e-44
-8.158280124584987e-30
-3.44360456891152e-31
-8.579263522684876e-33
-1.482008771981828e-34
-1.882369149638843e-36
-1.96385475732681e-38
-1.690160675618806e-40
-1.180846779542004e-42
-6.404398717550056e-45
-2.40866092577724e-47
-4.608809649715646e-50
1
1
1
1
1
1
1
1
1
1
1
1
1
1
1
1
1
1
1
1
1
1
0.9904278195386507
1
1
1
1
1
1
1
1
1
1
1
1
1
1
1
1
1
1
0.9999821889128102
0.9999648627936631
0.9999708438121123
0.9999903064765006
0.9993758267253868
1
1
1
1
1
1
1
1
1
1
1
1
1
1
1
1
1
1
1
1
1
1
1
1
1
1
1
1
1
1
1
1
1
1
1
1
1
1
1
1
0.9857936226183789
0.9499849285580269
0.897377464454246
0.8480626637133732
0.9150342141813607
1
1
1
1
1
1
1
1
1
1
1
1
1
1
1
1
1
0.8745881429775247
0.5675663355250031
0.1409409759638565
0.05592159155016715
0.08091505499728477
0.1489190391159181
0.4631844750288458
1
1
1
1
1
1
1
1
1
1
1
1
1
1
0.9769885595340758
0.639259791833091
0.09360039043050261
1.561924432491778e-18
-9.718873121649521e-32
-3.273416439946944e-20
-2.333489013563297e-20
-1.547511120065152e-18
0.004788333141349932
1
1
1
1
1
1
1
1
1
1
1
1
1
0.8683688267715173
0.3612119976010437
2.152692576924807e-18
-5.858915236715331e-27
3.572456313974109e-12
8.984356053364615e-14
2.404157128855139e-17
3.742432051025214e-36
-5.509232348247578e-20
1.204596873005011e-21
1
1
1
1
1
1
1
1
1
1
1
0.9584481548446185
0.6600747673106863
0.1357037555528209
-1.906799748410402e-19
2.329416457924576e-23
5.089501145410288e-09
1.734403085419268e-10
2.319959262309006e-14
-1.687088368602167e-32
-3.266376708559677e-20
-5.470228155700544e-20
-9.525685084304087e-20
1
1
1
1
1
1
1
1
0.9985490924377014
0.9318212494149648
0.7084614743830122
0.2893646018717678
0
8.495077402766767e-20
3.339281293767699e-21
2.834309312773011e-06
1.184492506134228e-07
-5.267836573139039e-26
-6.252754619836254e-21
-1.469938758452945e-20
-3.867632243548483e-20
-9.733947130700642e-20
-1.350521430461066e-19
1
1
1
1
0.9968224870087531
0.9730066775926263
0.9068798862656398
0.7725754959420589
0.5161227489889288
0.2225112327690025
0.007729280397444043
1.312823723369573e-20
4.979554364767436e-38
0.0007228615828864787
0.0004513995058657971
2.609245921105108e-05
-3.588090666276277e-23
-3.00944057909177e-21
-6.48053600927781e-21
-1.849474899478445e-20
-4.752748443878381e-20
-1.096381790636371e-19
-1.440631777665312e-19
0.7605511585231723
0.7374412413297551
0.690427885707271
0.5988964588244974
0.4671660882625201
0.3181923551773748
0.1706662738487476
0.04516402935139761
7.340885651697627e-20
8.54518456120162e-27
1.777845154847534e-19
3.939143143139618e-11
-2.421746761467674e-29
0.0130276246715058
0.002214175472297472
1.942494232394316e-21
-1.345005937388548e-21
-2.038027137168972e-21
-5.159696635763601e-21
-1.49200472250368e-20
-3.678122450636406e-20
-7.173343000074596e-20
-9.236308311741294e-20
0.03923668295640119
0.02792221611056482
0.008385799498930382
0
-1.520322729240741e-22
-2.864833035940503e-31
1.009510483826124e-29
9.612968543009595e-45
8.135747901937578e-11
1.379125106129735e-09
2.530982363486316e-09
5.562155151804339e-10
2.853063870561096e-27
0.01547895032448109
0.002526395902946275
-5.886599358940008e-22
-8.199500113803882e-22
-1.11652930735722e-21
-2.86519066072447e-21
-7.953137514233872e-21
-8.305452061093767e-21
7.141887629154053e-19
1.294060031477319e-15
-3.875629788352322e-20
-4.321249460918678e-20
-9.057508853762322e-21
-2.826644791973224e-39
8.498299220612876e-18
4.001354978300419e-14
2.09895097951882e-12
6.551645659045566e-13
2.149127011169839e-09
5.488844804753051e-09
5.404405578774045e-09
1.079224753224265e-09
-1.858090760113447e-22
0.01514509081094651
0.001837551428216843
-3.910097174307964e-22
-4.436338681422229e-22
-5.153080528915537e-22
-1.250508940498388e-21
-3.524510080262278e-21
-7.277329754144194e-21
2.799705403077814e-20
7.641553576713875e-17
-6.480633492636821e-20
-6.590492510390904e-20
-1.272196253756856e-20
2.305722503949873e-20
3.421626584981333e-15
2.252374822584893e-12
4.750237489211926e-11
3.443277271326556e-10
5.05029136433407e-09
5.604208709104455e-09
3.46515832220793e-09
2.11921430207314e-22
3.233138934960137e-05
0.002277083674947808
0.0006107319013552726
-2.759009425758385e-22
-2.413520896534515e-22
-2.164066163248458e-22
-4.626017773489219e-22
-1.326033389636247e-21
-3.338249499231871e-21
-4.088465238172524e-21
1.477340390838829e-19
-5.595314618585898e-20
-5.493186579306641e-20
-6.918046175484492e-21
7.659409492498486e-18
1.376324091405321e-13
2.072714326410202e-11
2.314166768783549e-10
1.126021458847536e-09
3.812938834844132e-09
3.053890344547083e-09
1.315948098581856e-22
6.364361348756363e-22
0.0005779895004434302
1.881739199434966e-21
-5.450476399837256e-23
-1.926608200049159e-22
-1.313014318554688e-22
-8.894624935266752e-23
-1.532621392508383e-22
-4.248038798380191e-22
-1.111309265514568e-21
-2.274190412703221e-21
0
-2.714382828136299e-20
-2.541751198258263e-20
2.931683059263431e-21
1.068091354613457e-15
1.722546282413737e-12
6.642795599914988e-11
4.19838421489254e-10
1.21292520339551e-09
3.415594820109241e-09
3.37329944666964e-09
1.132862074288599e-05
2.596841527119493e-05
0.000595334735558492
6.905745730281856e-06
-7.196972606317236e-23
-1.286063716164804e-22
-6.926306912809911e-23
-3.523518434774282e-23
-4.499180793436794e-23
-1.143226993076473e-22
-3.035083232477914e-22
-6.549372972568492e-22
-9.966923674705532e-22
-5.887789410377718e-21
-4.714372655136402e-21
5.312525866934057e-18
4.523229058160154e-14
7.966154373266798e-12
1.016151498722589e-10
4.227314040404947e-10
3.452464909927377e-16
6.255694408506512e-07
4.214385417952542e-05
0.0001220156626373028
5.546595617861098e-05
5.570208911933159e-05
-5.561141134959445e-21
-6.425511885061789e-23
-7.894410784017808e-23
-3.479007798047407e-23
-1.348710206608529e-23
-1.198242255668795e-23
-2.603980001777306e-23
-6.785977215834027e-23
-1.50583511798894e-22
-2.373491631827549e-22
2.447524386657495e-26
7.915503396241375e-21
4.88060473974212e-16
3.99701418290981e-13
1.47669774253497e-11
9.983569605892034e-11
1.497356536797941e-10
3.487655987585854e-16
6.90919517039987e-06
0.0001268442774774333
0.0001222844541667479
1.958153332117579e-05
-9.048127794545699e-22
-2.506265009176551e-23
-4.279678567634939e-23
-4.29859129633393e-23
-1.628545432096275e-23
-4.891802242255689e-24
-2.95637357335782e-24
-5.07371164290251e-24
-1.249362664308231e-23
-2.780966830863667e-23
-4.432792769914816e-23
2.889181237110195e-24
6.363574623257497e-19
5.247610857314567e-15
9.195149054795954e-13
1.445411938598529e-11
2.808285903052538e-11
9.045241067314422e-12
3.452464456932432e-16
1.170319599387893e-05
0.0001193615636493451
0.0001110992906314377
7.776619781887439e-26
-1.099627122243291e-23
-1.775295707558938e-23
-2.342733231683208e-23
-2.063842441274781e-23
-7.099720610183054e-24
-1.635388692838929e-24
-6.84154118898414e-25
-8.560584651653219e-25
-1.9071007365913e-24
-4.1642672794249e-24
-6.59277187846824e-24
3.808912432037288e-23
5.882964578779439e-18
1.323457285440777e-14
8.67353383643063e-13
3.06666197884406e-12
2.599498716649874e-12
1.605311776139173e-11
3.085852975056962e-12
1.383398163713709e-06
1.305909396237553e-05
2.14484010118235e-05
1.615553717321724e-08
-6.526588566840076e-26
-1.311520157329406e-23
-1.247143780738956e-23
-9.274691225487887e-24
-3.015849254924553e-24
-4.916860841474818e-25
-1.483759196681947e-25
-1.270145752214981e-25
-2.429520160348036e-25
-5.096199968502648e-25
-7.911536078181892e-25
1.452833827855336e-22
1.343371037956841e-17
7.557239227570455e-15
1.206854660239511e-13
2.567242811243925e-13
1.398730672129747e-14
6.050672328775295e-10
9.653111201240062e-09
8.573808386860001e-12
4.684370037023213e-25
3.176279203965228e-08
5.677203425604243e-06
2.637760515904475e-07
-3.603646017871959e-27
-8.04574693617533e-24
-4.683085042992584e-24
-1.399392916326469e-24
-1.305787882703647e-25
-2.970007150986209e-26
-1.688039491825316e-26
-2.602108116221442e-26
-5.126089754921686e-26
-7.731017454490561e-26
2.120121916558273e-23
7.935542580650649e-19
3.527897523728261e-16
6.349711678242325e-15
1.451731087821009e-14
1.148343242285043e-14
4.905280537919751e-31
1.517377909989319e-16
2.253720492900118e-31
-4.64377695818108e-25
2.238863196737311e-07
1.465058172071715e-06
1.439849104678361e-06
3.710293815519881e-08
-8.770386765719167e-24
-2.982743383843494e-24
-7.734786219459893e-25
-3.02776841769142e-26
-5.356892867461279e-27
-2.043732380067124e-27
-2.365984011580904e-27
-4.255865586551761e-27
-6.187125786526933e-27
-2.945653391932382e-29
-5.798553933595119e-28
-3.608303001335696e-27
1.456817760608319e-36
8.078304469887105e-19
3.43187227478083e-17
1.778928044428312e-16
6.833469986986124e-15
2.876564092826402e-13
4.702133495235301e-11
1.158005874712353e-08
4.169886993374745e-08
1.935146717809561e-07
5.938902027743635e-08
-2.923464789806888e-29
-1.886897133087366e-24
-4.460869058866014e-25
-6.074087319938766e-27
-8.492884032995246e-28
-2.271105501027702e-28
-1.851105069717171e-28
-2.928028150659641e-28
-4.069775773763305e-28
-1.356960218029027e-29
-3.370291120883972e-28
-3.807335482274218e-27
-2.568106202172983e-26
-1.046346217387353e-25
3.316180785391234e-38
3.992440891228365e-20
1.814531292236449e-14
5.649758925277161e-12
3.558040585357007e-11
-6.26944899787066e-26
3.594345974283944e-26
1.936468284212215e-09
1.568962936274466e-08
1.999152396867048e-09
-8.971479600469921e-25
-2.107297884071097e-25
-1.040205508717889e-27
-1.157979928054087e-28
-2.300150752937231e-29
-1.268198278350005e-29
-1.67792376812528e-29
-2.206172801199177e-29
-9.598851124884179e-31
-2.643663321861526e-29
-3.362767792394641e-28
-2.61179153240312e-27
-1.382107125479398e-26
-5.129508581138258e-26
-1.516677047214455e-25
-3.529981115772735e-25
-6.583056976972e-25
-9.710901946512799e-25
-1.092111315415631e-24
-8.526200358806298e-25
-3.686325618847798e-25
-3.336203925852683e-28
1.099834422281604e-10
-2.952646149096007e-25
-6.846901250425769e-26
-1.484857979257359e-28
-1.330753247701999e-29
-2.082929733864161e-30
-7.754819195021413e-31
-8.071632729956372e-31
-9.883629209198626e-31
-1.855554497817713e-32
-5.898630622064873e-31
-8.765135239397732e-30
-8.069935202887405e-29
-5.167998033669882e-28
-2.452509689549101e-27
-8.983712694220824e-27
-2.614267548859208e-26
-6.166129187896798e-26
-1.191168678287962e-25
-1.876600538637036e-25
-2.34203672672637e-25
-2.161651539887692e-25
-1.335268298814228e-25
-7.107944712580731e-26
-7.272809822285027e-26
-1.374816028049419e-26
-1.705702462469152e-29
-1.260700596934293e-30
-1.646418882395138e-31
-4.293761641311686e-32
-3.298556294506676e-32
-3.673147701906811e-32
-1.45663406811272e-34
-5.634352766845886e-33
-1.017992426323543e-31
-1.140978970913627e-30
-8.909720621119043e-30
-5.164378011525648e-29
-2.313930616836497e-28
-8.246880365944861e-28
-2.38784939884484e-27
-5.70241186670165e-27
-1.133177206487797e-26
-1.875987275902321e-26
-2.562166026634263e-26
-2.806569889538454e-26
-2.303275032652317e-26
-1.17440397260315e-26
-1.57583779956933e-27
-1.510877009783682e-30
-9.584692480342715e-32
-1.108912172300214e-32
-2.157613154870844e-33
-1.164675446269855e-33
-1.138531246292151e-33
-1.006579499416186e-36
-4.379266936820528e-35
-8.934774171484989e-34
-1.137504295069307e-32
-1.015810668833026e-31
-6.782109527654492e-31
-3.525335955334107e-30
-1.467382149149912e-29
-4.991631252198836e-29
-1.407764583002889e-28
-3.319123013698817e-28
-6.546715714819464e-28
-1.068270491389017e-27
-1.395140816647148e-27
-1.344738744860854e-27
-7.724961757413228e-28
-1.012794904419429e-28
-9.836119902233834e-32
-5.670052902158318e-33
-6.218758005360082e-34
-9.719876926026661e-35
-3.627643584123422e-35
-2.96612208926746e-35
-1.676761985198184e-39
-8.198240434728637e-38
-1.883942401709171e-36
-2.711936156066583e-35
-2.750679927317211e-34
-2.095837291460754e-33
-1.248948246878146e-32
-5.9835813915445e-32
-2.349738905512621e-31
-7.661777215090962e-31
-2.087464913849633e-30
-4.740794377159267e-30
-8.837177202782584e-30
-1.303791115876417e-29
-1.417868829221541e-29
-9.947736210210042e-30
-3.42497332068189e-30
-4.448930997263436e-33
-2.528392424360238e-34
-2.838973647102819e-35
-3.840391833880903e-36
-1.016633637615107e-36
-6.566957837784797e-37
-7.179219599357704e-46
-5.560664897666237e-44
-2.062207932142742e-42
-4.882507125711856e-41
-8.299974104419423e-40
-1.080661509108368e-38
-1.123331495911069e-37
-9.599321522550983e-37
-6.890689284892971e-36
-4.220634291872612e-35
-2.227624591173135e-34
-1.015663808286632e-33
-3.968470425336305e-33
-1.296322173877667e-32
-3.354754521904813e-32
-6.143474327200721e-32
-5.969733280236401e-32
-1.36575317315505e-34
-8.238817769065713e-36
-1.032057405392602e-36
-1.29846357536467e-37
-2.590473643676467e-38
-1.254702287189774e-38
-1.150046725629555e-48
-9.914934836760349e-47
-4.092528820121888e-45
-1.080607982304289e-43
-2.054467275952561e-42
-3.00105442480346e-41
-3.5104977721879e-40
-3.383993538179856e-39
-2.743237203635734e-38
-1.895283777228888e-37
-1.122973992331114e-36
-5.692487321891683e-36
-2.434319934514036e-35
-8.513818780435008e-35
-2.295796626676818e-34
-4.251951325632598e-34
-4.060790368110047e-34
-2.823993779049173e-36
-1.900171464503106e-37
-2.925678496988594e-38
-3.671276102940197e-39
-5.971346872315012e-40
-2.109427106851648e-40
-7.169144202095018e-52
-6.761442819127955e-50
-3.058741656840296e-48
-8.872873266406226e-47
-1.857567999676269e-45
-2.993770015316272e-44
-3.86813745087828e-43
-4.116189108337311e-42
-3.670135370385591e-41
-2.766278998267765e-40
-1.763708802549987e-39
-9.437675373359851e-39
-4.163724949539463e-38
-1.46721219239761e-37
-3.905051221464717e-37
-7.045795409176641e-37
-6.594843058067987e-37
-3.655140353915914e-38
-2.996830776580876e-39
-6.345674273843414e-40
-8.506466093170798e-41
-1.221741613229544e-41
-3.183084829945498e-42
-9.809306232038975e-57
-8.694928437735059e-55
-3.661459051035022e-53
-9.812139796061987e-52
-1.889221486016991e-50
-2.804169489372603e-49
-3.37738307315543e-48
-3.449260424979956e-47
-3.108797264396778e-46
-2.553302706332523e-45
-1.943052719493201e-44
-1.366276975175326e-43
-8.709038065742978e-43
-4.88008721388541e-42
-2.301811637390288e-41
-8.550319672136571e-41
-2.22116607939011e-40
-3.060772341800336e-40
-3.116303828815417e-41
-1.035413559991915e-41
-1.586899822955497e-42
-2.162759343820457e-43
-4.36362816490614e-44
-4.076927699203478e-61
-5.728243785114215e-59
-3.818854300554414e-57
-1.622972088106406e-55
-4.965067314074955e-54
-1.169505758808703e-52
-2.214272383033897e-51
-3.471122231758299e-50
-4.599840793061125e-49
-5.225153509042346e-48
-5.127183276411611e-47
-4.350440032762359e-46
-3.169334480718389e-45
-1.946612801174918e-44
-9.739427573725972e-44
-3.735639602357551e-43
-9.812451399348002e-43
-1.361040089870336e-42
-2.389375979499628e-43
-1.251769548718637e-43
-2.346298357620699e-44
-3.229029843505453e-45
-5.414044383186748e-46
-2.613936124235631e-64
-4.072982846082488e-62
-3.009572960633917e-60
-1.417940714844902e-58
-4.811286278826508e-57
-1.257599545684962e-55
-2.64242299732894e-54
-4.592418502920784e-53
-6.728323034769848e-52
-8.405570305539227e-51
-8.996137441009679e-50
-8.23041663611172e-49
-6.371704582107212e-48
-4.08962229814117e-47
-2.101277314405568e-46
-8.15170215235851e-46
-2.152638020542223e-45
-3.114257702258331e-45
-1.281425760880284e-45
-1.105980271999178e-45
-2.709819945504707e-46
-3.972933898189942e-47
-5.955311780586916e-48
-9.085118900029642e-68
-1.553778428292854e-65
-1.258860828947561e-63
-6.50179851293058e-62
-2.418567172997063e-60
-6.929192199169466e-59
-1.593964571318268e-57
-3.023565159392076e-56
-4.807291581400284e-55
-6.461778187582909e-54
-7.360705614818706e-53
-7.083588821334627e-52
-5.707020011918691e-51
-3.784893633772451e-50
-2.008874214419325e-49
-8.155761965840364e-49
-2.357850120686237e-48
-4.364796326393845e-48
-4.930719692400453e-48
-7.046942080716428e-48
-2.409659186865654e-48
-3.942214728135568e-49
-5.629669971015795e-50
-1.252312039529406e-71
-2.30115155927413e-69
-1.999703067365457e-67
-1.107974414434692e-65
-4.429548872853785e-64
-1.367806939293347e-62
-3.399294415507765e-61
-6.965464112168527e-60
-1.191229131333913e-58
-1.706868359146989e-57
-2.046544498412904e-56
-2.0460850412838e-55
-1.700799917977994e-54
-1.177721505478732e-53
-6.878204499588834e-53
-3.46894560175727e-52
-1.528425469342469e-51
-5.609314055858293e-51
-1.543221604798405e-50
-3.203865200667766e-50
-1.623649749679251e-50
-3.084656913482118e-51
-4.415477209258297e-52
-2.638375061891784e-76
-5.277847584816791e-74
-4.990916153530764e-72
-3.011628144050754e-70
-1.316202668251452e-68
-4.483588984294268e-67
-1.250190044291816e-65
-2.953410557599645e-64
-6.058974388742135e-63
-1.099214302626504e-61
-1.786486531865763e-60
-2.617696286414936e-59
-3.446008772934113e-58
-4.011629834354053e-57
-4.016376651082196e-56
-3.329296106520059e-55
-2.182006007558764e-54
-1.076761190290714e-53
-3.87599213900457e-53
-1.024180015991704e-52
-8.116736807729679e-53
-1.852553759827563e-53
-2.765556568971302e-54
-7.260078644747533e-81
-2.012275300053593e-78
-2.669895021038972e-76
-2.285102573175833e-74
-1.424111942689797e-72
-6.899175902245736e-71
-2.704682749557097e-69
-8.812217863718554e-68
-2.430516076435969e-66
-5.746402606993414e-65
-1.173124208321888e-63
-2.071795177134286e-62
-3.152680782354782e-61
-4.092795138802068e-60
-4.462299180039611e-59
-4.003693484797586e-58
-2.89211013770257e-57
-1.652921678843786e-56
-7.337838327060016e-56
-2.277388262388186e-55
-2.917913393824258e-55
-8.224014762585087e-56
-1.320509984473883e-56
-2.517674480129345e-84
-7.453244221886968e-82
-1.056214701450472e-79
-9.655261102734441e-78
-6.422684625299345e-76
-3.316669648437441e-74
-1.383400338805283e-72
-4.785390192433432e-71
-1.398326431444192e-69
-3.495388487735099e-68
-7.530004252227366e-67
-1.401163046496306e-65
-2.246116305771102e-64
-3.081409832350458e-63
-3.585336302193593e-62
-3.505943498855671e-61
-2.859956190987992e-60
-1.92519370664248e-59
-1.020559916379482e-58
-3.63050331358602e-58
-7.14010811493549e-58
-2.538913687709918e-58
-4.492324194751927e-59
-5.638904749940496e-88
-1.780179798440766e-85
-2.689606517237806e-83
-2.621183167744591e-81
-1.857613976149004e-79
-1.02063697834846e-77
-4.522414775566326e-76
-1.659622091796172e-74
-5.140329336690227e-73
-1.361661399881898e-71
-3.110711164241654e-70
-6.152467551280336e-69
-1.053875594235726e-67
-1.56055025998214e-66
-1.991775531831606e-65
-2.181713856490448e-64
-2.03166201013414e-63
-1.567528936886464e-62
-9.376316814941017e-62
-3.802859054273154e-61
-1.058958851955272e-60
-4.841163111643725e-61
-9.627364162658157e-62
-3.82967627687223e-92
-1.320697506850153e-89
-2.181315340639829e-87
-2.323221546765826e-85
-1.79767563100393e-83
-1.077315098876479e-81
-5.203020539165828e-80
-2.081172764298194e-78
-7.0321571794761e-77
-2.036026634701231e-75
-5.099923726165299e-74
-1.111580814730896e-72
-2.114440722826503e-71
-3.512193726786753e-70
-5.079599005370936e-69
-6.336160550843902e-68
-6.67854975290146e-67
-5.733308395143383e-66
-3.77391472477418e-65
-1.772196588964319e-64
-6.844649250591997e-64
-4.16544590174138e-64
-9.476947312880773e-65
0.9959258845834295
1
0.5876812114717036
-4.846436144182136e-20
0.9991478431980991
1
0.9595476805303783
0.7927685759360663
1
1
1
1
1
1
1
1
0.8344050775553286
1
1
1
0.07888587877214598
0.2353857067997562
0.6457739470937714
1
1.590228084920144e-18
2.88410070221917e-18
0.004096906930320381
0.4455892794039371
-1.17620531739301e-19
-1.850172445112295e-19
-7.730975223922579e-20
-8.618620175729419e-18
-1.405427189175111e-19
-1.435292740574258e-19
-7.597704122700061e-21
3.006500510365329e-19
-1.611253132271392e-19
-2.032525796038935e-19
-4.061075359275521e-19
-1.540581670799982e-18
-1.084073262961007e-19
3.26544286585868e-23
2.018051344346211e-05
0.0002578826905368898
3.006831806571484e-14
5.159331509054929e-14
5.697137299846761e-06
6.57612456236019e-05
1.087387218268957e-14
2.830299792892534e-13
4.652319420891636e-13
6.496630178046605e-13
3.89236934504679e-17
8.047261931110499e-14
1.724234721968469e-12
2.491178450193691e-11
3.736064424683707e-19
1.001521387716289e-15
2.016408476253505e-13
8.977011551719898e-13
3.330790593465584e-23
4.833660343685652e-19
7.252476853853792e-17
1.812804140379908e-15
-2.190128045132729e-22
3.508530047836139e-37
5.12658851841219e-23
9.37240288270949e-23
-3.953587122631485e-23
-2.736735313338699e-23
-1.122979537038113e-23
-2.990689640593485e-24
-5.558697828590836e-24
-3.730671835762558e-24
-1.96052544085572e-24
-7.007220160378526e-25
-6.213570870796087e-25
-4.01178692494757e-25
-2.042841319755734e-25
-7.665994499725112e-26
-5.607021008661236e-26
-3.468739768751779e-26
-1.706732482909902e-26
-6.241257297981362e-27
-4.129843821218968e-27
-2.444569052360798e-27
-1.160769950320983e-27
-4.131635293900751e-28
-2.502675698733068e-28
-1.41835074744162e-28
-6.495761227408083e-29
-2.248112795096578e-29
-1.255445313428674e-29
-6.825834677374239e-30
-3.015581280996805e-30
-1.013656089903653e-30
-5.240083771237258e-31
-2.74056401590095e-31
-1.168790199722512e-31
-3.813406819516692e-32
-1.828306419852669e-32
-9.224197774331444e-33
-3.80176732583917e-33
-1.203874906152736e-33
-5.356335373132313e-34
-2.613775274890264e-34
-1.042480305767542e-34
-3.205017353494817e-35
-1.323484480716896e-35
-6.259819225548437e-36
-2.419552447269578e-36
-7.226581388737234e-37
-2.770804161196523e-37
-1.271818680003516e-37
-4.770625861339337e-38
-1.385293554515764e-38
-4.940393607028592e-39
-2.200025422252397e-39
-8.016740329041171e-40
-2.265001366230714e-40
-7.548340323246592e-41
-3.251911120139303e-41
-1.151319999016883e-41
-3.166762543266859e-42
-9.957806763628643e-43
-4.122819157982373e-43
-1.416202968369847e-43
-3.79229296582557e-44
-1.144397484274123e-44
-4.501414159369229e-45
-1.494531154381606e-45
-3.892343975279687e-46
-1.155894134112382e-46
-4.249829419123872e-47
-1.354535540095687e-47
-3.422549655667191e-48
-1.031234269452911e-48
-3.479488433591599e-49
-1.054304387282831e-49
-2.573448551229234e-50
-8.09278590231825e-51
-2.467635643359989e-51
-7.02902438826258e-52
-1.647689308798568e-52
-5.488480074249849e-53
-1.50131653784038e-53
-3.98076970754968e-54
-8.903588020602225e-55
-3.112403729454005e-55
-7.655388400289506e-56
-1.879007037562789e-56
-3.988535806657927e-57
-1.404459228106109e-57
-3.136020136853951e-58
-7.125594595772976e-59
-1.431652702283546e-59
-4.683604282111298e-60
-9.615668160112889e-61
-2.032005516519469e-61
-3.866760963564222e-62
-1.014798687013882e-62
-1.941569083681104e-63
-3.84495334266824e-64
-6.954797944491471e-65
-1.046277745516035e-65
-1.892308877422111e-66
-3.54778607546417e-67
-6.153748110415845e-68
1.887236100101123e-34
8.733006588489885e-17
4.361537237866523e-16
2.82780028468635e-17
1.455572879268451e-17
1.014901004850112e-17
1.978579520501538e-20
3.132456399355429e-24
3.132036700259738e-30
-2.883227185943475e-30
-1.398411599437707e-31
-3.382995558001453e-33
-5.495105702497006e-35
-7.350298200775918e-37
-7.962003587334454e-39
-6.7991153203316e-41
-4.330746650494442e-43
-1.82626899094657e-45
-3.750877217240356e-48
0.1069809331978691
7.692216919877541e-17
5.723256675233674e-15
3.473136409698348e-16
1.036353840000147e-15
6.48045651736139e-15
3.91529884049732e-16
5.511455421656562e-19
2.010996609579735e-24
1.958689697640854e-30
-2.170725183195141e-30
-9.913151184293869e-32
-2.403534854868976e-33
-4.340588006879245e-35
-6.230818202487823e-37
-6.964122487900453e-39
-5.637067995054506e-41
-2.891134323754297e-43
-6.900638250548953e-46
0.5794679974032847
0.01163899169712854
2.31912767786215e-21
6.34910485388428e-16
3.41550741863577e-15
2.57947796417824e-13
1.701977133208617e-13
5.102665739022468e-16
3.948878755456242e-21
7.112043647427524e-27
5.228117179626433e-45
-1.210961581844072e-30
-4.679054194485764e-32
-1.045278434627587e-33
-1.607999536307987e-35
-1.753632335020851e-37
-1.309521247105898e-39
-6.016512674550958e-42
-1.273184928770775e-44
0.9679456751928811
0.1865615942180789
-4.073956320183306e-19
-3.703210638245704e-34
-1.837804452022242e-25
1.310936771871281e-11
2.435251229767014e-12
3.532576362624939e-15
3.086546222933444e-20
1.663926052883187e-25
8.62489161332769e-31
-5.444185664730359e-30
-3.369684890698978e-31
-9.36572438664803e-33
-1.559080516133992e-34
-1.687500343416321e-36
-1.179626249641471e-38
-4.88837280735064e-41
-9.154529904785203e-44
1
0.4015054986409578
5.642205877547189e-18
2.141636304585825e-08
8.361624538047648e-08
1.481895324476673e-08
2.540794810520185e-20
1.863266701825441e-19
1.02716274007824e-20
1.339373066362202e-23
2.274421454268523e-28
-2.217923651242936e-30
-3.622408767855838e-31
-1.447368102664468e-32
-3.092056091844281e-34
-3.9290957899921e-36
-3.004599696800851e-38
-1.289697326944671e-40
-2.40156968715885e-43
1
0.5781049706314523
0.009836438210659023
7.463169389642679e-09
2.441476546649799e-07
7.010719182534688e-08
1.991546096322793e-20
3.269675286993057e-18
5.531119714157965e-19
2.827864628128028e-21
1.0842295655246e-25
1.54680797597567e-31
-5.50084675474271e-32
-3.899031200409364e-33
-1.156325935121563e-34
-1.861344032172171e-36
-1.718646315821944e-38
-8.597899831849227e-41
-1.807945880972031e-43
0.9992377446841781
0.8359310489989483
0.1170766630242797
7.717812714141394e-09
1.257967794736176e-08
2.925263745900108e-09
4.126787911916662e-11
2.175856050821546e-18
2.175818878990677e-18
1.60274911020267e-19
1.365198734502231e-22
2.592464958883838e-28
-1.438876121937279e-47
-4.536102740541961e-34
-2.040073105853123e-35
-3.981766102963417e-37
-4.215706392275613e-39
-2.367190391692985e-41
-5.506874560877541e-44
0.8688966929263586
0.9241281018522547
0.3150279478598749
7.463169389922207e-09
5.257550735220181e-08
2.985308954874811e-08
1.443032899570608e-10
4.688223746945993e-18