/*--------------------------------*- C++ -*----------------------------------*\
| =========                 |                                                 |
| \\      /  F ield         | OpenFOAM: The Open Source CFD Toolbox           |
|  \\    /   O peration     | Version:  2206                                  |
|   \\  /    A nd           | Website:  www.openfoam.com                      |
|    \\/     M anipulation  |                                                 |
\*---------------------------------------------------------------------------*/
FoamFile
{
    version     2.0;
    format      ascii;
    arch        "LSB;label=32;scalar=64";
    class       volScalarField;
    location    "0.2";
    object      p;
}
// * * * * * * * * * * * * * * * * * * * * * * * * * * * * * * * * * * * * * //

dimensions      [1 -1 -2 0 0 0 0];

internalField   nonuniform List<scalar> 
2268
(
99831.595245889
99834.19823405976
99834.92181040846
99834.99841187487
99834.69346944257
99833.90617877718
99832.5794886854
99830.74559550677
99828.50819707326
99826.08638281186
99823.91223420842
99822.7761619473
99824.02810120533
99829.83481401585
99843.46732508522
99869.53150618392
99913.94568937131
99983.28919043216
100083.6425804297
100217.4822246176
100379.2833165677
100545.9095359807
100710.1964311867
99770.67323564719
99773.23176333444
99773.88113947392
99773.90228618622
99773.51410100036
99772.61601842773
99771.16113643475
99769.18238899928
99766.78162564649
99764.17646116774
99761.79594846818
99760.42299261778
99761.39190133258
99766.84113785699
99779.99641339266
99805.3910060537
99848.81106086787
99916.96921008294
100015.8983704672
100148.6910723838
100311.0579628604
100479.8378335805
100652.4281273161
99708.44876494112
99710.95876589458
99711.52053655566
99711.47358614003
99710.97581523869
99709.92599293187
99708.28891692497
99706.0964579102
99703.44415895244
99700.54091373114
99697.8006666
99695.97964846472
99696.36752127732
99701.03396589629
99713.11201711805
99737.02240184152
99778.4255285227
99843.68008234166
99939.0423535139
100067.8194220607
100226.6391231772
100391.8469433497
100568.988332582
99644.80093319502
99647.22698021572
99647.64935097237
99647.47165517716
99646.78669899132
99645.4918450619
99643.56155355372
99641.0239814752
99637.96421104936
99634.57563488559
99631.24621043073
99628.68886050467
99628.12310095294
99631.51314939462
99641.85524941453
99663.40677629133
99701.59771723332
99762.4728640313
99852.09354020581
99973.72584759323
100124.5369590754
100280.2827343291
100458.3137007113
99579.84616971156
99582.17010551391
99582.41916464777
99582.05968769625
99581.1227959954
99579.50416832206
99577.18430484735
99574.18455359926
99570.57517305452
99566.52652567683
99562.38829172088
99558.81145517094
99556.91612824045
99558.51816965426
99566.42866541792
99584.70037591131
99618.50553924013
99673.39655643856
99754.95490945139
99865.93809287199
100003.2788058183
100141.5396870186
100313.0348708102
99513.58371174605
99515.82343272002
99515.89644569869
99515.33004949463
99514.10226830555
99512.10547892217
99509.32191686577
99505.7629791177
99501.47952337329
99496.61065401124
99491.45386135459
99486.57678789801
99482.96407519771
99482.22591151419
99486.92021814904
99500.83402098685
99528.83369312067
99575.83478056773
99646.73858434496
99743.18824091753
99860.23549589727
99968.41659851266
100113.8784297266
99445.50470616367
99447.6769538143
99447.56715688654
99446.75763246467
99445.18918390616
99442.74678140084
99439.40907153311
99435.17482287895
99430.07222116082
99424.20371418503
99417.80567182323
99411.34931242545
99405.65886567664
99402.09429958797
99402.90673423828
99411.57172780369
99432.6161643236
99469.93823545867
99527.3909273763
99604.83677977454
99692.95916174908
99751.66455386681
99825.35173817717
99374.79977167766
99376.77821153674
99376.36936205142
99375.138899524
99373.02277934458
99369.89342709161
99365.71542022411
99360.46897237752
99354.15447233217
99346.83313448231
99338.67726235444
99330.06198545401
99321.65486547165
99314.57929489082
99310.8081525655
99313.52179517581
99326.86251933927
99353.44276330581
99395.36899876807
99450.0321970597
99500.26925307173
99483.72868946505
99376.35189803416
97574.5546986949
97574.64917657974
97574.84134401435
97575.08390737663
97575.33800031908
97575.57871231093
97575.79427121278
97575.98118128373
97576.14009167587
97576.27347863388
97576.38385299165
97576.47541894522
97576.55005980733
97576.61005619353
97576.65744602781
97576.69366351249
97576.71987954348
97576.73692557645
97576.74533189127
97574.47587850991
97574.5742243038
97574.77438145048
97575.02375584008
97575.28199473342
97575.52473802082
97575.7410392758
97575.9280099982
97576.08664266592
97576.21968120265
97576.32944320769
97576.42067365549
97576.49491759874
97576.5546249336
97576.60170501286
97576.63771350133
97576.66378218743
97576.68073294409
97576.68909489404
97574.37143778629
97574.48002815736
97574.6977488578
97574.9612485361
97575.22783710646
97575.47458058169
97575.69228839358
97575.87929371932
97576.03728267185
97576.16930765375
97576.27842139723
97576.36864725233
97576.44207243163
97576.50109701033
97576.54764603691
97576.58323814279
97576.60900612577
97576.62576265953
97576.6340297361
97574.23818672803
97574.36485376711
97574.61155491922
97574.89704135066
97575.17608662648
97575.4286069309
97575.64823122077
97575.83514563717
97575.99208380634
97576.12263189616
97576.23052658673
97576.31931320677
97576.39150206166
97576.44950875445
97576.49524814624
97576.53021536578
97576.55553192925
97576.571996325
97576.58012055485
97574.06995530793
97574.22564282813
97574.51609370584
97574.83225356933
97575.12767670002
97575.38740839294
97575.60918056975
97575.79571298834
97575.9511201133
97576.07964454718
97576.18573247691
97576.27261984664
97576.34316735195
97576.39981918613
97576.44447618326
97576.47861277308
97576.50332971482
97576.51940609523
97576.52734074769
97573.85623404948
97574.05763758875
97574.41246940425
97574.7687389005
97575.08397388241
97575.35179616929
97575.57554846442
97575.76117743636
97575.9144488848
97576.04036545973
97576.14400710212
97576.22851449499
97576.29701289606
97576.35197256412
97576.39528161229
97576.4283867013
97576.45235944522
97576.46795462185
97576.47565428648
97573.57994267174
97573.8544228191
97574.3039017979
97574.70857964708
97575.0460494603
97575.32227597845
97575.5475419024
97575.73160977659
97575.88194989627
97576.0049071892
97576.10531379785
97576.18692828437
97576.25296680699
97576.30590125878
97576.34760388228
97576.3794821718
97576.40257098414
97576.4175952298
97576.4250162872
97573.21793810074
97573.6089966312
97574.19590209429
97574.65138041892
97575.01347088703
97575.2983999705
97575.5247842903
97575.70677389005
97575.85368573884
97575.97293179407
97576.06952793806
97576.14777101786
97576.21093466585
97576.26152223114
97576.30136897162
97576.33183295791
97576.35390457579
97576.36827274207
97576.37537395697
99262.20783895535
99263.70716199158
99262.8314746173
99260.81880369167
99257.68908564211
99253.29923817782
99247.57539553093
99240.45671351996
99231.88628759141
99221.84120181293
99210.36638227142
99197.6478280275
99184.04030957751
99170.20521859477
99157.59683817915
99148.83012321765
99147.25319696726
99154.09576526277
99167.33748422384
99179.45979076387
99155.40502052425
98971.75008679031
98125.07789489991
99106.53893298427
99107.57085015801
99106.06318799853
99103.06503611842
99098.55260719109
99092.36359895763
99084.36566916811
99074.40285186014
99062.27962994803
99047.7667596063
99030.58331470822
99010.42786345404
98986.85006437622
98959.39940060665
98928.52776913783
98896.27893761752
98866.23037521611
98841.84871829348
98814.84718481956
98778.40679447268
98707.46874705097
98555.09416554771
98239.84809998039
98946.17401397391
98946.56528422875
98944.14148405468
98939.81111358677
98933.47602754424
98924.92917203557
98913.95412933511
98900.25863586011
98883.45189388252
98863.01815421718
98838.21238762792
98808.0481904225
98770.91625859553
98724.81748430915
98668.80579783398
98603.85163611418
98534.24737247334
98470.43322814944
98414.7123776386
98343.74672818829
98273.73930010584
98198.93671385928
98090.52153545084
98782.08567702826
98781.78166078537
98778.32362082113
98772.47463044991
98764.06017844353
98752.80648140503
98738.38720824482
98720.3370986667
98698.02334854768
98670.56644119475
98636.61629920521
98594.37442002723
98540.75113969715
98471.43911663356
98382.54457641619
98271.121892265
98139.29872321172
98000.62544502779
97849.07062426672
97711.95235205253
97713.45011795462
97742.14631457716
97745.33526102883
98615.22667039088
98614.18087774271
98609.5943126776
98602.07332112185
98591.36798585262
98577.1225758713
98558.88142217888
98535.97933586707
98507.51633399109
98472.18756399109
98427.97683945214
98372.31166429058
98299.90599197993
98202.41797726332
98072.22124279448
97905.49772667984
97729.60134779969
97619.13056870422
97582.02341219991
97574.87767573778
97576.66521063035
97580.58903708095
97596.43856704945
98446.63461792481
98444.82727330022
98439.0650229874
98429.79446335432
98416.69584049228
98399.32459090557
98377.09338319059
98349.13413412916
98314.27980982092
98270.7378885896
98215.8553419314
98145.7813056422
98051.19836606145
97921.40457967506
97763.64268729776
97626.82035111162
97578.85651193984
97572.25899863635
97571.43514545064
97571.09494231621
97570.85863625078
97570.60617761285
97570.52357287882
98277.49426124628
98274.9398072512
98268.01620115559
98257.0203313948
98241.56588905299
98221.12024849118
98194.96972298807
98162.05145654629
98120.86659357767
98068.88812304367
98002.62380518515
97915.90719089146
97799.88347497223
97674.68816201591
97594.19475041714
97572.90151433843
97572.01231014934
97571.58871286285
97571.21994749762
97570.82501661754
97570.42809405919
97570.17484324532
97569.98818464816
98109.00764551098
98105.751325725
98097.72501271381
98085.08490941855
98067.37324143336
98043.91110571277
98013.83590466768
97975.91091797504
97928.15959140974
97867.21505880827
97790.10984926374
97699.10330942537
97617.34297946877
97581.69274537916
97572.88138012923
97572.26904990818
97571.88025156413
97571.49193501947
97571.07834883862
97570.59361799907
97570.16556399426
97569.94582013003
97569.86893302416
97941.12950793745
97937.21581827072
97928.08646685716
97913.75333968461
97893.73689648119
97867.15955928617
97833.14372350085
97790.5823435148
97738.02711809654
97680.09191006853
97624.60175244413
97590.32708848974
97574.90268435481
97573.57741929241
97572.78419209861
97572.25909232911
97571.89198329602
97571.52340249259
97571.11156590754
97570.64042908655
97570.22809864992
97570.00668066904
97569.96448625233
97773.23430163354
97768.74283592809
97758.67329452545
97742.88691221489
97721.70570659578
97695.94395015408
97666.46500302541
97634.9688472069
97606.73367147613
97588.52194318782
97575.38305563673
97574.28070694952
97574.56314967305
97573.96470752486
97572.65342634525
97572.14347113621
97571.90980853495
97571.61183865099
97571.24985000359
97570.8284463437
97570.45958324916
97570.24573471525
97570.17022823181
97631.88310094114
97628.72762596035
97622.34213541288
97613.97988859859
97604.50420324423
97594.93276877288
97585.49178554025
97577.25617247299
97574.85020206207
97574.65070176477
97574.5473931767
97574.3583657298
97574.32939322903
97573.94367256945
97572.53984347131
97572.16656376103
97571.98964098433
97571.74616225714
97571.44344609014
97571.10285134378
97570.79757762922
97570.60057509638
97570.44139410766
97577.29779313393
97576.59778602768
97575.41594084416
97574.95831704276
97575.00742450447
97574.80324022104
97574.67260188758
97574.55589995097
97574.5549564953
97574.40917236045
97574.27812866739
97574.14984335321
97574.12858161013
97574.01005375778
97572.46021396038
97572.30360289552
97572.11821957718
97571.91386338454
97571.67441030053
97571.41854806754
97571.18960036302
97571.03185115472
97570.9157171493
97574.72517043863
97574.73175228981
97574.7397439013
97574.74340017879
97574.72202603822
97574.61466201351
97574.5044005001
97574.39379708467
97574.29767754202
97574.16474483808
97574.02921437999
97573.9092364199
97573.89054502171
97573.75403967856
97572.48090645958
97572.42625260373
97572.24844261602
97572.08364251342
97571.90411289783
97571.72577124424
97571.57737898425
97571.4872081502
97571.46494328475
97574.57587403865
97574.57597523206
97574.57023080907
97574.55389732886
97574.51467962343
97574.43669587505
97574.33681676126
97574.21996394546
97574.08784895189
97573.93478726513
97573.77553298308
97573.63402340053
97573.56717005401
97573.03509240603
97572.48727799303
97572.51239335645
97572.36034474397
97572.23458562299
97572.11049910309
97572.00016689043
97571.9214282321
97571.89451072269
97571.94068777395
97574.43638630721
97574.43200615702
97574.41878307801
97574.39325196846
97574.34821252737
97574.27648784364
97574.17829176897
97574.05233087749
97573.89720093804
97573.7171529295
97573.52445742967
97573.35060039745
97573.2132496311
97572.78752783527
97572.59722652857
97572.56163547558
97572.46275154482
97572.37481294292
97572.29311711948
97572.23045145343
97572.20103691946
97572.21867804026
97572.29954643772
97574.30700646008
97574.29985760948
97574.28290695314
97574.25328135269
97574.20588071982
97574.13476244903
97574.03493753391
97573.90087373533
97573.73009533891
97573.52738807024
97573.30426120927
97573.10392538433
97572.95884486029
97572.72653278508
97572.66510129848
97572.61509947326
97572.5510376785
97572.49241952658
97572.44331021099
97572.41470135274
97572.41765050293
97572.46133445844
97572.55534159737
97574.18711265831
97574.17868976395
97574.1604077528
97574.12959926191
97574.08208126041
97574.01184716818
97573.91189740348
97573.77513342066
97573.60062247601
97573.38800021779
97573.15329841482
97572.95261292238
97572.79711554279
97572.71224463725
97572.69131718916
97572.66744882867
97572.62895075002
97572.59219433603
97572.56614865197
97572.55998990772
97572.58205346134
97572.63813945871
97572.73298075311
97574.0756664784
97574.06679572203
97574.04877016717
97574.0187511777
97573.97324638852
97573.90639916019
97573.81092566368
97573.68048922102
97573.51457244941
97573.31455521764
97573.09970703763
97572.92332261216
97572.80364069004
97572.75417428627
97572.7398428895
97572.72567468979
97572.70069883978
97572.67798815544
97572.6665640088
97572.67363178518
97572.70524757011
97572.76477881992
97572.85389754437
97573.97096693054
97573.96225872212
97573.94534882285
97573.91749307145
97573.87583614945
97573.81520774399
97573.72931497794
97573.61368658495
97573.46868574675
97573.29764053207
97573.12101012249
97572.97984856793
97572.88858950918
97572.84100138673
97572.81348772247
97572.79085826363
97572.76791138429
97572.75157429308
97572.74766461106
97572.76103057202
97572.79568011052
97572.8531940555
97572.9333985121
97573.87117754684
97573.86294938852
97573.847627209
97573.82267078412
97573.78588285777
97573.73306031796
97573.659313506
97573.5616044592
97573.44133258639
97573.30373929045
97573.16582490395
97573.0542434016
97572.97373933395
97572.92015569784
97572.88164377044
97572.8507230621
97572.82619111708
97572.81171996248
97572.81054289546
97572.82558338545
97572.85920188877
97572.91170364825
97572.98184810248
97573.77433203903
97573.76669420363
97573.75304141628
97573.73108243544
97573.69920787643
97573.65423537475
97573.59266445439
97573.5124919021
97573.41528648819
97573.30676625331
97573.19865292424
97573.10572226583
97573.03229342087
97572.9767836457
97572.9322725208
97572.89663254179
97572.87060289607
97572.85624894523
97572.85530380122
97572.86942415618
97572.89983253136
97572.94600971619
97573.00616927168
97573.67856242444
97573.67148663921
97573.65930325317
97573.6399848728
97573.61242449375
97573.57437825958
97573.52354063313
97573.45864800087
97573.38088973265
97573.29481691404
97573.20829654881
97573.12938026308
97573.06265120034
97573.00781109303
97572.96223410935
97572.92511388104
97572.89853699284
97572.88390481155
97572.8821647155
97572.89420119948
97572.92051957124
97572.96013434738
97573.01106235805
97573.5822870962
97573.57569992462
97573.56469228257
97573.54750319938
97573.5234260967
97573.49097402854
97573.44874612337
97573.3960336145
97573.33365792189
97573.26461061869
97573.19394208551
97573.12688649382
97573.06700247427
97573.01526336544
97572.97132318158
97572.93546407648
97572.90928054556
97572.89455715494
97572.89181434661
97572.90147685124
97572.92362619135
97572.95706629554
97572.99984016694
97573.48442709517
97573.47827283303
97573.46819251594
97573.45268299252
97573.43132650212
97573.40317580811
97573.3674380912
97573.32379826861
97573.2728862713
97573.21661185028
97573.15812049777
97573.10100361495
97573.04814956685
97573.00103992585
97572.96060461841
97572.9283797734
97572.90317516691
97572.88884320472
97572.8853460356
97572.89283736741
97572.91118313085
97572.93915418246
97572.97495177187
97573.38447444371
97573.37872663478
97573.36941284627
97573.35527286585
97573.33608654636
97573.31126927823
97573.280408682
97573.24343687115
97573.20089522618
97573.15410370308
97573.10512951454
97573.05645703882
97573.01039389511
97572.96853971944
97572.93198572364
97572.90171520179
97572.88087485962
97572.86790797905
97572.86415140099
97572.86990380887
97572.8850112272
97572.90833383474
97572.93829802243
97573.28229734983
97573.27694905728
97573.26831414933
97573.25535529682
97573.23798745201
97573.21586966627
97573.18882435288
97573.15693076244
97573.12068066417
97573.08107333876
97573.03960124037
97572.99808642636
97572.95836013384
97572.92193093988
97572.89003381159
97572.86395204729
97572.84522182676
97572.83362318343
97572.82987755761
97572.83431261276
97572.84677404004
97572.86625384164
97572.89141673005
97573.17797493286
97573.1730252812
97573.16502456997
97573.15313381379
97573.1373608217
97573.11753257264
97573.09362093107
97573.06579451846
97573.03451377511
97573.00058814009
97572.96517122471
97572.92966953901
97572.89556074707
97572.86418730712
97572.83670194668
97572.81420695467
97572.79771609278
97572.78765692604
97572.78413840804
97572.78762287038
97572.79797786065
97572.81433728419
97572.83558768021
97573.07169957658
97573.0671450751
97573.05975258374
97573.04885405037
97573.03452009801
97573.01669485422
97572.99544755234
97572.97100225485
97572.94379762618
97572.91452171691
97572.88410730771
97572.85367360977
97572.82441906375
97572.7974946817
97572.77391907938
97572.75460190518
97572.74034440993
97572.73161695171
97572.72843452731
97572.73125524753
97572.73995907733
97572.75381170107
97572.77189198116
97572.96369591422
97572.95952652802
97572.95272028126
97572.94275243323
97572.92973437298
97572.91369126385
97572.89475509331
97572.87318209687
97572.84939082402
97572.82398292089
97572.79773682196
97572.77156663254
97572.7464537574
97572.72336378264
97572.70316520179
97572.68660288242
97572.67430261215
97572.666675607
97572.66405877672
97572.66645206348
97572.6738774204
97572.68572884834
97572.7012483555
97572.85417824548
97572.85037687422
97572.84413173111
97572.83503572113
97572.82322499907
97572.80877981402
97572.79187144346
97572.77277230981
97572.75187984257
97572.72972784228
97572.70697875958
97572.68439268286
97572.66277994448
97572.64294512654
97572.62562427894
97572.61144177058
97572.60090922448
97572.59441941945
97572.59219804537
97572.5942966944
97572.60072932232
97572.61098592947
97572.62443936552
97572.74332913362
97572.73987266001
97572.73415758926
97572.72587179519
97572.71516467405
97572.70215271486
97572.68703014195
97572.6700745008
97572.65166095838
97572.63226725998
97572.61246505547
97572.59289533485
97572.57423337382
97572.55714985926
97572.54226619992
97572.53011109833
97572.52111112073
97572.51560281632
97572.51378794383
97572.51569539362
97572.52135836183
97572.53034492575
97572.54213215444
97572.63129237232
97572.6281533354
97572.62293135759
97572.61538997866
97572.6056837478
97572.5939516888
97572.58039948923
97572.56530214722
97572.54901176531
97572.53195826663
97572.51464033501
97572.49760549667
97572.48142325622
97572.46665651489
97572.4538293449
97572.44339055286
97572.43569750786
97572.43103760571
97572.42962854417
97572.43140406259
97572.43647358169
97572.44445075927
97572.45489497598
97572.51817395646
97572.51532225813
97572.51055166102
97572.50368542038
97572.49487780647
97572.4842805912
97572.47210309164
97572.4586128364
97572.44413889245
97572.42906981187
97572.41384461238
97572.39893640007
97572.3848312624
97572.3720062338
97572.36090533379
97572.35191043268
97572.3453221794
97572.34136639611
97572.34018479369
97572.34202895001
97572.34666892549
97572.35384878729
97572.36321139838
97572.40404693953
97572.40145129482
97572.3970872356
97572.39082483378
97572.38281463845
97572.37321437294
97572.36223188182
97572.35012441567
97572.3371989125
97572.32380820604
97572.31034231969
97572.29721470423
97572.28484506129
97572.27364172539
97572.26398406648
97572.25620112085
97572.25055319697
97572.24723739606
97572.24640681075
97572.24818178274
97572.25246415484
97572.25900283
97572.26749203491
97572.28895766189
97572.28658671437
97572.28258275328
97572.27685241474
97572.26954054856
97572.26080629385
97572.25085290722
97572.23992604621
97572.22831203041
97572.2163330327
97572.20433879812
97572.19269484251
97572.18176822661
97572.1719132368
97572.1634578814
97572.15668780082
97572.15183008276
97572.14905762457
97572.14850767075
97572.15026540212
97572.15426976194
97572.16029603715
97572.16808159926
97572.17293194005
97572.1707550383
97572.16706440243
97572.16179519569
97572.15508566621
97572.14709353
97572.13801576973
97572.12808621603
97572.11757256805
97572.10677099468
97572.09599823304
97572.08558124343
97572.07584529631
97572.06710216262
97572.05963914309
97572.0537066754
97572.04950578863
97572.04718902236
97572.04687531761
97572.04863671513
97572.05242602959
97572.05804554551
97572.06526753605
97572.05598054374
97572.05396822242
97572.05054472855
97572.04566754129
97572.0394681638
97572.03210124426
97572.02375680384
97572.01465742827
97572.00505452913
97571.99522253149
97571.98545133304
97571.97603713188
97571.96727225931
97571.95943514539
97571.95278120173
97571.94753333561
97571.94387150224
97571.94193017881
97571.94181292644
97571.94358668715
97571.94721174084
97571.95251209068
97571.95928762149
97571.93810403763
97571.93622823198
97571.93302683083
97571.92847491261
97571.9226975763
97571.91584557707
97571.90810207409
97571.89967962151
97571.8908157702
97571.88176707923
97571.87280195186
97571.86419240347
97571.85620515839
97571.84909287184
97571.84308628383
97571.83838641625
97571.83515579418
97571.83351571036
97571.83355976794
97571.83535502655
97571.83885335714
97571.84390764791
97571.85033598467
97571.81929750359
97571.8175315249
97571.81450850741
97571.81021751791
97571.8047779038
97571.798336401
97571.79107005143
97571.78318283729
97571.77490086468
97571.76646644018
97571.75813124159
97571.75014875841
97571.74276624863
97571.73621688267
97571.73071277687
97571.72643824026
97571.7235424503
97571.72213703397
97571.72230544299
97571.72409940265
97571.72752613573
97571.73240057618
97571.73856794706
97571.69955282014
97571.69787112628
97571.69498472527
97571.69089307993
97571.68571064205
97571.67958050998
97571.67267463369
97571.66519003797
97571.65734395848
97571.64936791309
97571.64150117969
97571.6339837018
97571.62704860618
97571.62091506917
97571.61578195207
97571.61182172103
97571.60917419435
97571.60794451728
97571.60821117437
97571.61002717138
97571.61338233562
97571.61812489631
97571.62410559507
97571.57884401667
97571.57722200503
97571.57443402488
97571.57048448191
97571.56548371018
97571.55957177555
97571.55291674845
97571.54571060356
97571.53816428993
97571.53050189631
97571.52295432163
97571.51575244068
97571.5091200014
97571.50326694736
97571.49838342489
97571.49463410216
97571.49215266043
97571.49104032594
97571.49137294349
97571.49320106088
97571.49651257857
97571.50116982496
97571.50703226143
97571.45708854962
97571.45550535375
97571.45277833627
97571.4489139013
97571.44402101325
97571.43823833967
97571.43173137565
97571.42468867681
97571.41731702154
97571.40983581604
97571.40247093247
97571.39544800612
97571.38898565265
97571.38328900468
97571.37854390802
97571.37491143984
97571.37252263872
97571.37147706807
97571.37184986805
97571.3736920214
97571.37698714032
97571.38160549141
97571.38742092306
96669.07133254167
96976.3385761715
97531.56827022911
97557.70884250688
97966.60627455843
97852.10717543644
97681.30907695097
97533.72381886699
97926.73849732713
97805.30353451024
97690.73151636176
97604.58003305164
97679.76259831662
97637.85129677533
97609.93217293188
97586.75352860663
97595.75431045712
97590.9326941639
97579.94625647228
97569.11295191558
97574.33683516637
97584.27906611972
97596.24698352908
97576.73221863923
97569.76780004236
97569.78676195852
97571.10520155079
97575.78075631305
97569.71013301122
97569.56630425435
97569.73100356809
97571.13302326511
97569.84802600084
97569.73246840564
97569.66298278311
97570.18253531777
97570.02726403846
97569.93640381261
97569.94446503693
97570.3066290924
97570.15621890979
97569.86793812407
97569.4306275281
97568.82239894528
97570.75583012213
97570.61864494503
97570.54379650038
97570.80169556606
97571.48074298557
97571.51545876886
97571.62102295271
97571.8832882804
97572.03722139238
97572.13235609606
97572.27099374523
97572.476357904
97572.41887149469
97572.51976542502
97572.65189592497
97572.81818570718
97572.6716305498
97572.7634716475
97572.87372821404
97573.00738588699
97572.83814853233
97572.91740447108
97573.00867897966
97573.11468147757
97572.9457680023
97573.01301683151
97573.08833511837
97573.17387828582
97573.01215447848
97573.06877946081
97573.13111497396
97573.20084593682
97573.0486072833
97573.09611743099
97573.14786677102
97573.20522177039
97573.06236662884
97573.10216244402
97573.14524998846
97573.19275526828
97573.05817855625
97573.09149553452
97573.12746987955
97573.16703869983
97573.03927874583
97573.06718712066
97573.09730780877
97573.13042496084
97573.00798158912
97573.03139894044
97573.05669974112
97573.08454224713
97572.96602904319
97572.98573502574
97573.00706870876
97573.03058388711
97572.91479574093
97572.93144666216
97572.9495175271
97572.96947522202
97572.85540706923
97572.86955033155
97572.88493941331
97572.90196878451
97572.78880654091
97572.80089513677
97572.81408081732
97572.82869765535
97572.71579528658
97572.72620201163
97572.737577547
97572.75020557154
97572.63705769552
97572.64608841055
97572.65597693286
97572.66696487728
97572.55318011488
97572.56108541977
97572.56975249697
97572.57938791493
97572.46466486565
97572.47165019487
97572.47931444473
97572.48783502974
97572.37194186161
97572.37817580978
97572.38501754006
97572.39262032343
97572.27537779023
97572.28099901327
97572.28716747597
97572.29401644292
97572.17528293539
97572.18040623379
97572.18602571604
97572.19225815745
97572.0719177304
97572.07663906297
97572.08181402933
97572.087545865
97571.96549884042
97571.96989929993
97571.97471846029
97571.9800485436
97571.85620395774
97571.86035302069
97571.8648927396
97571.86990645442
97571.74417582405
97571.74813405781
97571.7524611541
97571.75723339163
97571.62952734869
97571.63334843372
97571.63752205559
97571.64211915294
97571.51233333377
97571.51606626275
97571.52014116404
97571.52462419494
97571.39267500448
97571.39636813368
97571.40039677836
97571.40481734651
97572.25284615232
97573.08186743212
97573.99507018812
97574.57592685081
97574.97802560504
97575.27357400379
97575.49925064508
97575.67616807892
97575.81648961476
97575.92834637417
97576.01799678984
97576.09014563718
97576.14820405723
97576.19464405846
97576.23122193606
97576.25920062483
97576.27948726973
97576.29270524948
97576.2992445986
97568.5723448553
97572.78159204686
97574.03736458017
97574.61898622666
97575.00622898947
97575.287999051
97575.49924486897
97575.66104579368
97575.78575027295
97575.88299923176
97575.95992681511
97576.02137609324
97576.0707106483
97576.11018415823
97576.14130936316
97576.1651670837
97576.18250705213
97576.19383200599
97576.19945036418
97554.27814971248
97573.62572585564
97574.65087358501
97574.87450549168
97575.10864826705
97575.34489063646
97575.53047466833
97575.66878178196
97575.77192748859
97575.85054258566
97575.91178830512
97575.96036042074
97575.99943888563
97576.03079906522
97576.05564292544
97576.07479227017
97576.08878565519
97576.09796934138
97576.10255083455
97545.96106325445
97576.96845472326
97575.11871900786
97575.04764643048
97575.23760758566
97575.42990472617
97575.58529883243
97575.69473122191
97575.77170370572
97575.82798119853
97575.87093048031
97575.90503999485
97575.93257273728
97575.95492711866
97575.97289189816
97575.98693251486
97575.99731848268
97576.00420392014
97576.0076757271
97540.06481304731
97574.95403512377
97574.62783818034
97575.14868240368
97575.38247452704
97575.53947054424
97575.65898104064
97575.73415406287
97575.78032191645
97575.81105967418
97575.83393593824
97575.85234002251
97575.86767926264
97575.88062680206
97575.8914703331
97575.90026224508
97575.90696278292
97575.91150875806
97575.91385319147
97538.52137380841
97558.61921150998
97573.95397138158
97575.55990281801
97575.60247237046
97575.66689543761
97575.74388189548
97575.77983421211
97575.79112808159
97575.79479145003
97575.7969135087
97575.79922786266
97575.80222142425
97575.80583529147
97575.80970211561
97575.81339454962
97575.81653234744
97575.81882313044
97575.82008196962
97544.90429304699
97542.72020780116
97577.92672572698
97576.13757852696
97575.83949178597
97575.81240845149
97575.8295980796
97575.82103479249
97575.79770687653
97575.77418313574
97575.7553874103
97575.74202426772
97575.73341392518
97575.72841427902
97575.72590986866
97575.72496984065
97575.72487883297
97575.72512729907
97575.72540225563
97564.16600254497
97552.15533609367
97576.81178036187
97576.18959372217
97576.01328786684
97575.98031888451
97575.92911020591
97575.85868684592
97575.79337176465
97575.74170624321
97575.7036909678
97575.67684473425
97575.65850185498
97575.64634088826
97575.6385468513
97575.6337530554
97575.63096728406
97575.62950548742
97575.62895314944
97582.45745852981
97586.87322292844
97577.22469363494
97576.39499153661
97576.21672457758