/*--------------------------------*- C++ -*----------------------------------*\
| =========                 |                                                 |
| \\      /  F ield         | OpenFOAM: The Open Source CFD Toolbox           |
|  \\    /   O peration     | Version:  2206                                  |
|   \\  /    A nd           | Website:  www.openfoam.com                      |
|    \\/     M anipulation  |                                                 |
\*---------------------------------------------------------------------------*/
FoamFile
{
    version     2.0;
    format      ascii;
    arch        "LSB;label=32;scalar=64";
    class       volScalarField;
    location    "0.2";
    object      p_rgh;
}
// * * * * * * * * * * * * * * * * * * * * * * * * * * * * * * * * * * * * * //

dimensions      [1 -1 -2 0 0 0 0];

internalField   nonuniform List<scalar> 
2268
(
99861.0646371336
99863.66762530962
99864.39120166301
99864.46780313522
99864.16286070996
99863.37557005271
99862.04887997014
99860.21498680176
99857.97758837942
99855.55577412987
99853.3816255385
99852.24555328891
99853.49749250214
99859.30420498802
99872.93671495796
99899.00089338647
99943.41507126976
100012.7585627609
100113.1119362496
100246.9515520431
100408.7525926407
100575.3787073025
100739.6197868011
99859.08140975054
99861.63993745776
99862.289313617
99862.31046035505
99861.92227520111
99861.02419266621
99859.5693107167
99857.5905633303
99855.18980003179
99852.58463561149
99850.20412297281
99848.83116718255
99849.8000756706
99855.2493105605
99868.4045807058
99893.79916083117
99937.21919229806
100005.3773027492
100104.3064023699
100237.0990099962
100399.4657444149
100568.2453120235
100740.7052529645
99855.79572242122
99858.30572341381
99858.86749411716
99858.82054375761
99858.32277292627
99857.27295070278
99855.63587479242
99853.44341588703
99850.79111705039
99847.88787195971
99845.14762496472
99843.32660696415
99843.71447909861
99848.38091916937
99860.45895596045
99884.36930850815
99925.77237818859
99991.02684377064
100086.3889884251
100215.1658809919
100373.9853204645
100539.1926637104
100716.2986015289
99851.08667460678
99853.51272168886
99853.93509251688
99853.75739681696
99853.07244075007
99851.77758696242
99849.84729561834
99847.30972372497
99844.24995350273
99840.8613775562
99837.53195332453
99834.97460361393
99834.40884237427
99837.79888047236
99848.14094925016
99869.69240977723
99907.88323897216
99968.75822306699
100058.3786819884
100180.0107146291
100330.8214602143
100486.5666170739
100664.5959330051
99845.07069560392
99847.39463149052
99847.64369072749
99847.28421391301
99846.34732238213
99844.72869490994
99842.40883166516
99839.40908067119
99835.79970039711
99831.75105329487
99827.61281960175
99824.0359832712
99822.140652445
99823.74267238613
99831.65310711582
99849.92469535096
99883.72966448085
99938.62041622403
100020.1784356293
100131.1612302299
100268.5014782854
100406.7616392014
100578.254881926
99837.74702254213
99839.98674361796
99840.05975672315
99839.49336068361
99838.26557969369
99836.26879053832
99833.4852287283
99829.9262912276
99825.64283570572
99820.77396650556
99815.61717389902
99810.74010028965
99807.12737876941
99806.38917220275
99811.08336558174
99824.99695661534
99852.99631488933
99899.99700423777
99970.90033566838
100067.3494800435
100184.3961831229
100292.5765111927
100438.0352200031
99828.60680192563
99830.77904967175
99830.66925285356
99829.85972856131
99828.29128014066
99825.84887776113
99822.51116796756
99818.27691927463
99813.17431731858
99807.3058097911
99800.90776639683
99794.4514051794
99788.76093830107
99785.19628748151
99786.00851702703
99794.67315583349
99815.71710668024
99853.03861708182
99910.49068416884
99987.93590517412
100076.0576731968
100134.7622954006
100204.8281916897
99816.84065156948
99818.81909144094
99818.41024192239
99817.17977929872
99815.06365892397
99811.93430631343
99807.75629879744
99802.50984982077
99796.19534790334
99788.87400709935
99780.71813041547
99772.10284636157
99763.69568002968
99756.61994197639
99752.84843250131
99755.56149195333
99768.90148219914
99795.48097538402
99837.40643580734
99892.06891325983
99942.30534305923
99925.76409153159
99813.76380860108
97574.58341851698
97574.67789643364
97574.87006392147
97575.11262734892
97575.36672035599
97575.60743240584
97575.82299135695
97576.00990146851
97576.16881189369
97576.30219887849
97576.41257325791
97576.50413922932
97576.57878010566
97576.63877650323
97576.68616634661
97576.72238383853
97576.74859987518
97576.76564591171
97576.77405222552
97574.56203791666
97574.66038380675
97574.86054112135
97575.10991571397
97575.36815480579
97575.61089827008
97575.82719967476
97576.01417052001
97576.17280328732
97576.30584190457
97576.41560397438
97576.50683447524
97576.58107846107
97576.64078582991
97576.6878659364
97576.72387444663
97576.74994314981
97576.76689391668
97576.77525585941
97574.51503665194
97574.62362719337
97574.84134820182
97575.10484824293
97575.37143715689
97575.61818093449
97575.83588900042
97576.02289453347
97576.18088365323
97576.31290876961
97576.42202262147
97576.51224856422
97576.58567381409
97576.64469844896
97576.69124752063
97576.72683966266
97576.75260767399
97576.76936422399
97576.7776312874
97574.43922486639
97574.56589218548
97574.8125938444
97575.09808086065
97575.37712661274
97575.62964734527
97575.84927199686
97576.03618670686
97576.19312511133
97576.32367338937
97576.43156823136
97576.5203549729
97576.59254392538
97576.65055069572
97576.6962901498
97576.73125741931
97576.75657402196
97576.77303843938
97576.78116265024
97574.32843253782
97574.48412047869
97574.77457229559
97575.09073335347
97575.38615668526
97575.64588884692
97575.86766148735
97576.05419428545
97576.20960171285
97576.3381263871
97576.44421450952
97576.5311020332
97576.60164966152
97576.65830159344
97576.70295866914
97576.73709532191
97576.76181231304
97576.77788872008
97576.78582334684
97574.17214948617
97574.3735548383
97574.72838995188
97575.08466357613
97575.39989466753
97575.66771672152
97575.89146951189
97576.07709894232
97576.23037075845
97576.35628762434
97576.45992949893
97576.54443707674
97576.61293562443
97576.66789540913
97576.71120455084
97576.74430971495
97576.76828251794
97576.78387772549
97576.79157735525
97573.95329399177
97574.22778704063
97574.67728883361
97575.08197690704
97575.41941605564
97575.69563712453
97575.9209031112
97576.1049714789
97576.25531202156
97576.37826965305
97576.47867653167
97576.56029123323
97576.62632992624
97576.67926451347
97576.72096724482
97576.7528456209
97576.77593450122
97576.7909587808
97576.79837980137
97573.64897438219
97574.03985029554
97574.626972749
97575.08236701447
97575.4443069853
97575.72920438497
97575.95558589882
97576.137575816
97576.28448811073
97576.40373453413
97576.50033097294
97576.57857428734
97576.64173812259
97576.69232583845
97576.73217269982
97576.76263678263
97576.78470847489
97576.79907667996
97576.80617785972
99796.40051531419
99797.89983806013
99797.02415015829
99795.01147837116
99791.88175902984
99787.49190966117
99781.76806410568
99774.64937762522
99766.07894492389
99756.03384910648
99744.55901469852
99731.84043763659
99718.23280637769
99704.39736369546
99691.78828946408
99683.02056372042
99681.44245180192
99688.28387793987
99701.52449966823
99713.64579061586
99689.59022382664
99505.93472085716
98654.15431915739
99766.09640258436
99767.12831786643
99765.62065260329
99762.62249595262
99758.11006025704
99751.92104254609
99743.92309893355
99733.96026127678
99721.8370096908
99707.32409677717
99690.14059016028
99669.98504498067
99646.40685842323
99618.955190067
99588.08186416466
99555.83088248775
99525.78008507608
99501.39646337849
99474.38192707313
99437.92921246831
99366.99458822401
99214.63263539983
98898.98129167929
99731.09620569702
99731.4874689018
99729.06365734627
99724.73326971872
99718.39815996532
99709.85127196061
99698.87618248809
99685.18062128645
99668.37378246849
99647.93990666376
99623.13394527056
99592.96945288699
99555.83638860627
99509.73511972882
99453.7198207515
99388.7616608543
99319.15371864456
99255.33660168425
99199.61403922262
99128.64793967419
99058.64091965018
98983.83922946292
98875.42480906953
99692.37239995078
99692.06836353189
99688.61029086811
99682.76125180579
99674.34673410466
99663.09294840506
99648.67354816702
99630.62325655835
99608.30925056014
99580.85199051182
99546.90135117529
99504.65872530328
99451.03266017283
99381.715400897
99292.8143236519
99181.38527828119
99049.55694375398
98897.96390719274
98713.85308509617
98528.90911407245
98485.57637110243
98575.16089759076
98655.59658083845
99650.87749235214
99649.83165213067
99645.24500853446
99637.72390129548
99627.01841401555
99612.77280145882
99594.53135705891
99571.62885817388
99543.16528676507
99507.83574844398
99463.62396198323
99407.95722109462
99335.54582065137
99238.04872379619
99107.84217123402
98941.11011446807
98635.49182588916
98207.45592175395
97729.08436620598
97634.00251726477
97661.64213622021
97735.9057827081
98076.8118492729
99607.64869527619
99605.84125595615
99600.07884330439
99590.80804673502
99577.70912209997
99560.33747404703
99538.10569067088
99510.14563166563
99475.29021173982
99431.74684671173
99376.86236417905
99306.78555659062
99212.19283793817
99082.38634725567
98897.9300770211
98369.49484142892
97688.82585437266
97573.69593103584
97572.82464793007
97572.46744825576
97572.2393049997
97572.00757670442
97577.5136309677
99563.87015509878
99561.3155408165
99554.39164086984
99543.39534467
99527.94037912689
99507.49404963217
99481.34251682757
99448.42284515839
99407.23612216016
99355.2552627508
99288.98790021248
99202.26709703571
99086.22978067874
98791.90932451311
98059.84684265946
97574.49538586575
97573.55284214173
97573.05228998323
97572.62385971186
97572.21927966771
97571.86551369433
97571.66661949016
97571.53542470737
99520.74320042347
99517.48664981025
99509.45986531564
99496.81907676414
99479.10660281825
99455.6433970478
99425.56661468204
99387.63944077188
99339.88525518915
99278.93719557942
99201.82785518534
99052.22940695558
98549.76348926988
97774.77477178063
97574.62993796327
97573.92321469416
97573.43310113573
97572.97098334949
97572.52226742917
97572.05272425704
97571.69347521797
97571.54575637063
97571.53380035536
99478.22190325409
99474.30792560299
99465.17789010459
99450.84375544099
99430.82617553967
99404.24731229506
99370.22926223211
99327.66479179123
99272.87794505624
99112.4999309719
98714.11090565778
98036.45002111874
97576.80710965373
97575.47552358816
97574.59937545256
97573.94604386263
97573.45655781348
97573.05758953944
97572.65508483506
97572.21451247722
97571.86998973507
97571.72780322062
97571.75237959124
99435.6803819498
99431.18855538202
99421.11802604017
99405.33016549825
99378.87159383621
99313.56476378332
99174.28801778174
98919.79242983085
98465.74511574884
97960.02911555117
97590.27528770777
97576.3314942608
97576.56346296822
97577.1484900575
97575.27587658132
97573.91390090437
97573.55683582652
97573.25813358677
97572.90967103472
97572.52121994058
97572.21114354073
97572.076577666
97572.07302358204
98992.12433182534
98947.70361579968
98857.37041501829
98685.56941467211
98440.87806694029
98165.30201256396
97892.44172675813
97660.11279985971
97577.05856418352
97576.81568962049
97576.65752311116
97576.41435688887
97576.38519784926
97599.23623802223
97578.46078611139
97573.94456739321
97573.74767485197
97573.50748840577
97573.21776191646
97572.90706269773
97572.65410648211
97572.52771113258
97572.43309299201
97654.63894634234
97632.31961951066
97593.80838576837
97577.32735797402
97577.35175525742
97577.12258545308
97576.95441279374
97576.79412815379
97576.74297674598
97576.54899163867
97576.38290371059
97576.2331446832
97576.26101040081
97605.73028976312
97579.35087029777
97574.18432555674
97573.99251494418
97573.79100779808
97573.56139176566
97573.32829591895
97573.13994281173
97573.03830037673
97572.97171722284
97577.10730228313
97577.10729323278
97577.10277784882
97577.08899498178
97577.03942230775
97576.89784412801
97576.75011212337
97576.59978154702
97576.46735934058
97576.30704774134
97576.1609954009
97576.04787363941
97576.1239265105
97606.85314170757
97578.40201731131
97574.42079026497
97574.24101876342
97574.07787935412
97573.90428266488
97573.74012669051
97573.61820920135
97573.56547655072
97573.57575630909
97576.92927084609
97576.91953567533
97576.90213232944
97576.8725160334
97576.8099635824
97576.70396257506
97576.57556221963
97576.43270864191
97576.28154488701
97576.12084990626
97575.97053820247
97575.85661392238
97575.99293312128
97580.45133668307
97576.0654434335
97574.62444977451
97574.4726938634
97574.34754406703
97574.22637428305
97574.12344046605
97574.05898339776
97574.05281272174
97574.1171333727
97576.78832205822
97576.7776399547
97576.75719344229
97576.72144555814
97576.66100519082
97576.57172200028
97576.45731841397
97576.31952907081
97576.16058172309
97575.98917844023
97575.82078159788
97575.68913107511
97577.01877981343
97575.35330975649
97574.87243978455
97574.79470383795
97574.69581870692
97574.60795379168
97574.52746444996
97574.46802971781
97574.44498458618
97574.4721049295
97574.56130591045
97576.70437631171
97576.69381633814
97576.6726240789
97576.6377378149
97576.58242608623
97576.50323151618
97576.39771608898
97576.26297178394
97576.10039350219
97575.91937929897
97575.75993280117
97575.64876615812
97577.00641235114
97575.31917498387
97575.05253476571
97574.96735475559
97574.90550318269
97574.8466315655
97574.79793536899
97574.77052498025
97574.77585985171
97574.82311431979
97574.92019623368
97576.66977251974
97576.65978684131
97576.64002301679
97576.60767746724
97576.55795735582
97576.48619815131
97576.38720084717
97576.25651525304
97576.09974633752
97576.02192684605
97576.0316552031
97575.72381909605
97575.63894198011
97575.31681667543
97575.18759798312
97575.13984285179
97575.10523199628
97575.06801486947
97575.04208839381
97575.03630779586
97575.05912818362
97575.11633103399
97575.21207800081
97576.6693628347
97576.66042684662
97576.64244049453
97576.61255725018
97576.56768567949
97576.50214650035
97576.41013031206
97576.28881497345
97576.16133838157
97576.30871128532
97576.12168677275
97575.70756829769
97575.52571268489
97575.41472494138
97575.34806269263
97575.31956519051
97575.29901314681
97575.27571245552
97575.26433019487
97575.27149822065
97575.30331816013
97575.36314223197
97575.452474362
97576.68779628533
97576.67944436711
97576.66287188618
97576.63553238417
97576.5946557209
97576.53542624119
97576.45293048221
97576.34604140323
97576.25111289544
97576.40032541615
97576.22270368741
97575.78166254591
97575.67131457472
97575.59227031939
97575.53750555184
97575.5071652358
97575.48835238798
97575.471352034
97575.46748067976
97575.48086785503
97575.51556403429
97575.57314282107
97575.65338746402
97576.71310217019
97576.70499082044
97576.68976641644
97576.66494552202
97576.62836365844
97576.57613638767
97576.50442730477
97576.41234339717
97576.30731644246
97576.21867415735
97576.11652682496
97575.9435225973
97575.85001858586
97575.7774532974
97575.7240217848
97575.68994582443
97575.66878755532
97575.6536163493
97575.65249574585
97575.66753819321
97575.70116542853
97575.75367939929
97575.82382985162
97576.73909826632
97576.73140569047
97576.71769785303
97576.69565458329
97576.66369921366
97576.61879738062
97576.5579177146
97576.48000619744
97576.38767919081
97576.2867475533
97576.18599419906
97576.1113024326
97576.01469155774
97575.94713958244
97575.89486283045
97575.85892177733
97575.83537449736
97575.82027405543
97575.81942655759
97575.8335401182
97575.8639499288
97575.91012908089
97575.97028935757
97576.76489446138
97576.7577942425
97576.74559029308
97576.72624226609
97576.69864966274
97576.66059027807
97576.60981422878
97576.54524617344
97576.46845326718
97576.38432740211
97576.30104711537
97576.22743957068
97576.15901981709
97576.09559902163
97576.04674716771
97576.01036478418
97575.98544536764
97575.9700618042
97575.96847018586
97575.98048866175
97576.00680839944
97576.04642335868
97576.09735147296
97576.79063568519
97576.78406365312
97576.7730694385
97576.75590234541
97576.73185048174
97576.69941438186
97576.65718208296
97576.60444441298
97576.54206127059
97576.47310650484
97576.40270612951
97576.3359436684
97576.27631811268
97576.22338320126
97576.17872776593
97576.14350951154
97576.1181950289
97576.10288722492
97576.10030039379
97576.10993797384
97576.13208969514
97576.16552962903
97576.20830357964
97576.81515826393
97576.8090000341
97576.79891576935
97576.78340065884
97576.76203797194
97576.73387911401
97576.6981234448
97576.65444471674
97576.60346459124
97576.54709487934
97576.48849480697
97576.43127253944
97576.37833276848
97576.33122220142
97576.2908479543
97576.25895843355
97576.23403613784
97576.21939288558
97576.21600273988
97576.22347336613
97576.2418214084
97576.26979226894
97576.30558999813
97576.83730237937
97576.83155408014
97576.82223961821
97576.80809900869
97576.78891167334
97576.7640931568
97576.73323227347
97576.69626046828
97576.65371347337
97576.60690247794
97576.55789035895
97576.50916839835
97576.46306421014
97576.42120772686
97576.38471675031
97576.35455417297
97576.33375941616
97576.32068261699
97576.31697368129
97576.32271523368
97576.33782389146
97576.36114643814
97576.39111085905
97576.85731410439
97576.85196514257
97576.8433292663
97576.83036955645
97576.81300117765
97576.79088297412
97576.76383669954
97576.73194111818
97576.69568813067
97576.65607707968
97576.61459950851
97576.57307663743
97576.53334162557
97576.49690892977
97576.46501958749
97576.43895287887
97576.42022419638
97576.40859987981
97576.40486769419
97576.40929898195
97576.42176078036
97576.44124067138
97576.46640390366
97576.8751628193
97576.87021250644
97576.86221084237
97576.85031907524
97576.83454508919
97576.81471582025
97576.79080303101
97576.76297521922
97576.73169271491
97576.69776493221
97576.6623455714
97576.62684125628
97576.59272981028
97576.56135413847
97576.53386763275
97576.51137241471
97576.49488004296
97576.48481649451
97576.48130000901
97576.48478343729
97576.49513846404
97576.5114980895
97576.53274893838
97576.8910602838
97576.88650519578
97576.87911181113
97576.86821229143
97576.85387736859
97576.83605116839
97576.81480280722
97576.79035618324
97576.76314985073
97576.73387186346
97576.70345510932
97576.67301896255
97576.64376203185
97576.6168354758
97576.59325802696
97576.57393936826
97576.55968060321
97576.55095195689
97576.54776924092
97576.55058954669
97576.55929336052
97576.57314626309
97576.59122708633
97576.90522910136
97576.90105921114
97576.89425215831
97576.88428336475
97576.87126431627
97576.85522020899
97576.83628297714
97576.81470874451
97576.79091595537
97576.76550621538
97576.73925800505
97576.71308554496
97576.68797038616
97576.66487825599
97576.64467776089
97576.62811384125
97576.61581231083
97576.60818437267
97576.60556694416
97576.60795989534
97576.61538524169
97576.62723698989
97576.64275709339
97576.91788365399
97576.91408186911
97576.90783602674
97576.89873915011
97576.88692747446
97576.87248129862
97576.85557188587
97576.83647158562
97576.81557773917
97576.79342409341
97576.77067310947
97576.74808494987
97576.72647006265
97576.70663315849
97576.68931040491
97576.67512626322
97576.6645924169
97576.65810166113
97576.65587963848
97576.6579779406
97576.66441054824
97576.67466747944
97576.68812152372
97576.92920652336
97576.92574972572
97576.92003406899
97576.91174750774
97576.90103949967
97576.88802658931
97576.87290301347
97576.8559462776
97576.83753148081
97576.81813631176
97576.79833240611
97576.77876079358
97576.76009683531
97576.74301132992
97576.72812580298
97576.71596906135
97576.70696774988
97576.70145845128
97576.6996428907
97576.70154996136
97576.7072128751
97576.71619972805
97576.72798753002
97576.93934150512
97576.9362022256
97576.93097976923
97576.92343772805
97576.91373069512
97576.90199774888
97576.88844460571
97576.87334624899
97576.8570547337
97576.83999993042
97576.82268049389
97576.80564396239
97576.78945989597
97576.77469128485
97576.76186230795
97576.75142187983
97576.74372746114
97576.73906650172
97576.73765670176
97576.73943179258
97576.74450120596
97576.75247861381
97576.76292334011
97576.94839459873
97576.94554272537
97576.94077174115
97576.93390493427
97576.92509660531
97576.91449857695
97576.90232020401
97576.88882901837
97576.87435405709
97576.85928382693
97576.84405730861
97576.8291475994
97576.81504081601
97576.80221405823
97576.79111143666
97576.78211492293
97576.7755252623
97576.77156835661
97576.77038596517
97576.77222964104
97576.77686945416
97576.78404947522
97576.79341251192
97576.95643886148
97576.95384309173
97576.94947871393
97576.94321582194
97576.9352049867
97576.92560397816
97576.91462068296
97576.90251236725
97576.88958595332
97576.87619423741
97576.86272720197
97576.84959827279
97576.83722715716
97576.82602223223
97576.81636294401
97576.80857842593
97576.80292908872
97576.7996121266
97576.7987806966
97576.80055513364
97576.80483728914
97576.81137605887
97576.81986561177
97576.96352063617
97576.96114959446
97576.95714535708
97576.95141457839
97576.94410212635
97576.93536718383
97576.92541305149
97576.91448541064
97576.90287057597
97576.89089069069
97576.87889545785
97576.86725035658
97576.8563224339
97576.84646599804
97576.83800911751
97576.83123752289
97576.82637840635
97576.82360476693
97576.82305392598
97576.82481108014
97576.82881518011
97576.83484149689
97576.84262734029
97576.96966574053
97576.96748875614
97576.9637978604
97576.95852823595
97576.95181814965
97576.9438253602
97576.93474689544
97576.92481661537
97576.91430222266
97576.90349986343
97576.89272623329
97576.88230824754
97576.87257114734
97576.86382670673
97576.85636227056
97576.85042835756
97576.846226101
97576.84390814831
97576.84359352828
97576.84535431709
97576.8491433411
97576.8547628657
97576.86198509923
97576.97488494182
97576.97287253212
97576.96944877251
97576.96457116595
97576.95837123772
97576.95100367922
97576.94265855785
97576.93355849264
97576.92395490523
97576.91412220358
97576.90435024505
97576.89493517706
97576.88616928927
97576.87833099914
97576.87167574769
97576.86642651464
97576.86276335768
97576.86082086409
97576.86070268846
97576.86247582808
97576.86610057481
97576.87140091565
97576.87817667125
97576.97917880055
97576.97730288583
97576.97410119642
97576.96954883967
97576.96377094167
97576.95691830237
97576.94917412823
97576.94075100974
97576.93188651263
97576.9228371832
97576.91387138535
97576.90526107978
97576.89727293956
97576.89015959423
97576.88415180102
97576.87945064635
97576.87621875499
97576.87457753012
97576.87462067281
97576.87641531169
97576.87991333123
97576.88496761039
97576.89139617463
97576.9825423868
97576.98077626893
97576.97775293261
97576.97346147829
97576.96802128477
97576.96157913486
97576.9543121187
97576.94642425689
97576.93814167359
97576.92970666516
97576.92137087055
97576.91338772103
97576.90600441584
97576.89945409019
97576.89394886888
97576.88967312069
97576.88677612174
97576.88536961055
97576.88553713716
97576.8873304962
97576.89075692788
97576.89563136044
97576.90179896301
97576.98496756448
97576.98328569932
97576.98039895234
97576.97630682103
97576.97112379236
97576.96499301218
97576.95808647919
97576.95060125763
97576.94275460245
97576.93477802222
97576.9269107548
97576.91939268177
97576.91245686541
97576.9063224408
97576.90118827448
97576.89722689234
97576.89457821431
97576.8933474996
97576.89361332892
97576.89542876983
97576.89878366336
97576.90352622807
97576.90950715441
97576.98642834816
97576.9848061435
97576.98201781146
97576.97806778799
97576.97306644112
97576.96715388187
97576.9604982264
97576.95329148667
97576.94574462982
97576.93808173481
97576.93053366023
97576.9233312187
97576.9166980943
97576.91084419169
97576.90595966652
97576.90220925168
97576.89972673351
97576.89861345071
97576.89894533443
97576.90077297532
97576.90408426753
97576.90874151008
97576.91460411389
97576.98684221016
97576.98525882245
97576.98253150421
97576.97866666329
97576.97377329011
97576.9679900817
97576.96148256162
97576.95443930718
97576.94706710515
97576.93958535268
97576.93221989692
97576.92519634048
97576.9187332727
97576.91303582142
97576.90828985791
97576.90465651175
97576.90226688478
97576.90122059289
97576.901592804
97576.90343450669
97576.90672930088
97576.91134744024
97576.91716276886
97201.08035731572
97510.51988347495
97845.76582477191
97558.34658823824
98625.58886180531
98511.6501818042
98314.20192368203
98056.73997693467
98711.64191543439
98590.20666019685
98475.63271899149
98389.47478510329
98590.024519856
98548.11342316669
98520.19334370154
98497.01125689861
98460.09455689763
98626.55371274665
98615.56650365122
98604.7306696493
97667.24718288145
97858.65741894032
98346.48562947293
98737.70747329642
97571.33418571195
97571.37859156815
97577.96289295981
98149.83747164581
97571.40084588957
97571.28324135212
97571.47814003765
97572.8794924862
97571.66181573291
97571.57390661366
97571.54045920759
97572.08726507229
97571.95597934679
97571.89475621302
97571.9407512246
97572.35224474742
97572.17661392021
97571.91436733042
97571.54886465572
97571.41078562186
97572.83157093954
97572.70755495029
97572.66060421594
97573.0532637962
97573.59973031767
97573.63600950698
97573.74273381494
97574.00264993271
97574.21547916607
97574.30769307584
97574.44241313194
97574.64158542655
97574.68034186497
97574.7785400618
97574.90722698107
97575.06928736968
97575.03591863168
97575.12633664216
97575.23487405614
97575.3666144138
97575.31689685424
97575.39560375683
97575.48624999347
97575.5916104005
97575.54419900053
97575.61128123626
97575.68641963067
97575.77179294899
97575.73209677645
97575.78868077787
97575.85097467569
97575.92066932294
97575.89057693501
97575.93807901407
97575.98982073294
97576.04716971387
97576.02648396537
97576.0662787606
97576.10936550505
97576.15687038269
97576.14446699337
97576.17778416786
97576.21375879199
97576.25332800357
97576.24774192923
97576.27565063541
97576.3057716826
97576.33888924135
97576.33861976027
97576.36203741885
97576.38733852623
97576.41518135939
97576.41884196296
97576.43854821275
97576.4598821445
97576.48339757057
97576.48978311926
97576.50643427091
97576.52450533681
97576.54446321078
97576.55256862991
97576.56671208746
97576.58210132866
97576.59913082032
97576.60814201982
97576.6202307786
97576.63341658234
97576.64803349093
97576.6573044368
97576.66771129235
97576.67908691616
97576.6917149683
97576.70074027505
97576.70977109051
97576.71965966874
97576.73064760338
97576.73903588597
97576.74694126062
97576.7556083619
97576.76524373755
97576.77269357926
97576.77967895094
97576.78734319699
97576.795863712
97576.80214326039
97576.80837722427
97576.81521892543
97576.82282161589
97576.82775159359
97576.83337281234
97576.83954122782
97576.84639008476
97576.84982885151
97576.854952129
97576.86057155029
97576.86680386977
97576.86863544452
97576.87335675019
97576.8785316506
97576.88426335827
97576.88438803631
97576.88878846791
97576.89360756088
97576.89893751375
97576.89726430978
97576.90141335165
97576.90595300731
97576.91096659255
97576.90740701633
97576.91136523464
97576.91569227078
97576.92046437989
97576.91492907936
97576.91875014921
97576.9229237105
97576.92752067742
97576.91990528817
97576.92363818738
97576.92771301896
97576.93219591441
97576.92241672605
97576.92610978388
97576.93013835106
97576.93455880765
97572.76662567437
97573.60426109677
97574.51747834431
97575.09732956981
97575.49880579149
97575.79420409269
97576.01986240043
97576.19677882567
97576.33710075979
97576.44895791958
97576.53860865803
97576.61075776408
97576.66881639128
97576.71525656109
97576.75183457248
97576.77981336633
97576.80010008924
97576.81331811404
97576.81985742923
97639.85501029214
97573.47599882231
97574.68826032472
97575.26572933607
97575.65004477624
97575.93094188877
97576.14204892838
97576.30383528047
97576.4285389318
97576.52578819421
97576.60271609346
97576.6641656299
97576.71350039606
97576.75297407726
97576.7840994178
97576.80795724543
97576.82529729334
97576.83662229381
97576.8422406013
98009.49903818185
97583.70925014938
97575.47168967289
97575.65460346827
97575.87812988258
97576.11072235403
97576.29556367277
97576.43376113632
97576.53689472876
97576.61550907511
97576.67675499807
97576.7253273362
97576.76440599443
97576.79576632689
97576.82061031112
97576.83975975601
97576.85375321622
97576.86293694712
97576.86751836704
98427.06104545896
97747.6930609718
97576.13904538016
97575.98703937379
97576.14129956852
97576.32099205408
97576.47312544582
97576.58196275924
97576.65885599883
97576.7151257464
97576.75807460581
97576.79218425525
97576.81971713627
97576.84207163255
97576.86003651012
97576.87407720981
97576.88446324243
97576.89134871747
97576.89482042981
98575.66632665944
97991.51423367817
97575.83419674922
97576.26822959249
97576.43570910844
97576.56114013976
97576.67078378036
97576.74384136645
97576.78968355805
97576.82038443506
97576.8432576257
97576.86166157616
97576.87700086582
97576.88994846396
97576.90079205367
97576.90958402205
97576.91628460713
97576.92083060964
97576.92317492688
98699.48067265547
98230.3732709928
97586.78755799874
97576.85426239955
97576.8086249765
97576.82309720023
97576.88113382975
97576.91229257785
97576.92274362383
97576.92630090953
97576.92841304718
97576.93072664553
97576.93372013276
97576.93733398714
97576.94120081996
97576.94489327616
97576.94803109929
97576.95032189514
97576.95158059969
98830.23911509864
98618.23504945866
97729.9186365418
97577.59760337853
97577.19226455141
97577.1010386226
97577.09202391801
97577.0762557886
97577.05157847301
97577.02787748867
97577.00906470287
97576.99570016279
97576.98708961061
97576.98208987158
97576.97958541394
97576.97864536996
97576.97855436205
97576.97880282567
97576.97907763011
98790.9848527985
98856.82949891203
98022.70531354325
97577.80347608554
97577.49908227837
97577.39335682646
97577.31386030743
97577.23604035405
97577.16940754125
97577.11757611846
97577.07954518952
97577.05269754516
97577.03435435578
97577.02219321826
97577.01439907867
97577.00960522871
97577.0068194323
97577.00535761668
97577.0048051136
98788.09505208729
99060.18131395838
97998.98358850557
97578.12851396322