/*--------------------------------*- C++ -*----------------------------------*\
| =========                 |                                                 |
| \\      /  F ield         | OpenFOAM: The Open Source CFD Toolbox           |
|  \\    /   O peration     | Version:  2206                                  |
|   \\  /    A nd           | Website:  www.openfoam.com                      |
|    \\/     M anipulation  |                                                 |
\*---------------------------------------------------------------------------*/
FoamFile
{
    version     2.0;
    format      ascii;
    arch        "LSB;label=32;scalar=64";
    class       surfaceScalarField;
    location    "0.2";
    object      phi;
}
// * * * * * * * * * * * * * * * * * * * * * * * * * * * * * * * * * * * * * //

dimensions      [0 3 -1 0 0 0 0];

oriented        oriented;

internalField   nonuniform List<scalar> 
4432
(
5.108309042187112e-06
-5.108309042371417e-06
1.031222034199282e-05
-5.20391122072062e-06
1.553313661009037e-05
-5.220916180794505e-06
2.08315797556002e-05
-5.298443065838169e-06
2.623210883281731e-05
-5.400529008799465e-06
3.174384208343696e-05
-5.511733209175593e-06
3.737268125114169e-05
-5.628839174302803e-06
4.311563944524874e-05
-5.742958263409441e-06
4.895372928179055e-05
-5.838089970165451e-06
5.484445893963368e-05
-5.89072984242249e-06
6.07122891534212e-05
-5.867830427830845e-06
6.643662564034172e-05
-5.724336644938089e-06
7.183738325543863e-05
-5.400757475962469e-06
7.665620492139273e-05
-4.818820794347985e-06
8.0532277400303e-05
-3.876070346017612e-06
8.297700047723727e-05
-2.444719260724698e-06
8.337138910220186e-05
-3.943825793477239e-07
8.094733151793716e-05
2.424067026628846e-06
7.480334915760345e-05
6.143996971643132e-06
6.40016274331512e-05
1.080174424827072e-05
4.793955296543907e-05
1.606210829679082e-05
2.585320547090124e-05
2.208638860191341e-05
2.585375763791439e-05
5.164120408827365e-06
-1.027242938243577e-05
1.03751522510857e-05
-1.041494295588941e-05
1.562842903769231e-05
-1.047419286397188e-05
2.095880136569975e-05
-1.062881530329292e-05
2.638757473485457e-05
-1.082930230665605e-05
3.192811396286424e-05
-1.105227239986603e-05
3.758820305826275e-05
-1.128892828420075e-05
4.336599705327299e-05
-1.152075233391417e-05
4.924423747392688e-05
-1.171633052413095e-05
5.518303621224801e-05
-1.18295287543274e-05
6.111023176678471e-05
-1.179502617455584e-05
6.69093424209711e-05
-1.152344738010224e-05
7.240488484634745e-05
-1.089629947831176e-05
7.734307644999841e-05
-9.757010794177701e-06
8.136754143617281e-05
-7.900531870740664e-06
8.399488256783032e-05
-5.072054885381425e-06
8.457769491005231e-05
-9.771873678842439e-07
8.234437987697024e-05
4.657392456483982e-06
7.635773444707499e-05
1.213065715268705e-05
6.562558033738157e-05
2.153392055503189e-05
4.928229025666393e-05
3.240543253768321e-05
2.680630572752345e-05
4.456241771305854e-05
5.266059361051309e-05
5.156253065538295e-06
-1.542868242551281e-05
1.034284216842097e-05
-1.560153201197965e-05
1.558690125320505e-05
-1.571825190995548e-05
2.090974721115847e-05
-1.59516612352943e-05
2.633034919353653e-05
-1.624990428316122e-05
3.18652521957755e-05
-1.6587175428643e-05
3.752480127419114e-05
-1.694847743442133e-05
4.330959209386852e-05
-1.730554327385593e-05
4.920574102868011e-05
-1.761247961946662e-05
5.517799848432559e-05
-1.780178639104073e-05
6.116015098829022e-05
-1.777717885982386e-05
6.704295653464137e-05
-1.740625290595013e-05
7.265903837420381e-05
-1.651238046435242e-05
7.776172672242485e-05
-1.485969644290101e-05
8.199795442131335e-05
-1.21367541925727e-05
8.488049824841797e-05
-7.954590821556027e-06
8.577247610135613e-05
-1.869155678177847e-06
8.387833742376936e-05
6.551542311479518e-06
7.825359224562758e-05
1.775541600289236e-05
6.783200169513027e-05
3.195553079780152e-05
5.152721706702603e-05
4.871024975540081e-05
2.855722555428269e-05
6.75324579508331e-05
8.121780469008755e-05
5.139936196003678e-06
-2.056861864327758e-05
1.0300503594824e-05
-2.076209941704547e-05
1.552795845224517e-05
-2.094570678566658e-05
2.083628083590446e-05
-2.125998365000295e-05
2.62440222756196e-05
-2.165764577173251e-05
3.177058917298539e-05
-2.211374240019398e-05
3.742949144001581e-05
-2.260737980694332e-05
4.322509017381975e-05
-2.310114214081241e-05
4.914865690575333e-05
-2.353604649958083e-05
5.517190029441817e-05
-2.382502992282158e-05
6.123755012928036e-05
-2.384282881616344e-05
6.72475126071681e-05
-2.341621516317792e-05
7.304713755323624e-05
-2.231200385892944e-05
7.840086467500916e-05
-2.021341924379277e-05
8.296106049960064e-05
-1.669694202920453e-05
8.623921117092604e-05
-1.123273060569018e-05
8.75889181800693e-05
-3.218850898838027e-06
8.619353895024596e-05
7.946933468741725e-06
8.10930707987504e-05
2.285589643801349e-05
7.114540731592776e-05
4.190321083011372e-05
5.501089895141845e-05
6.484478873384243e-05
3.134084028937451e-05
9.120257122737982e-05
0.0001125585169671667
5.113040655024926e-06
-2.568165936309988e-05
1.024337556457373e-05
-2.589243438389421e-05
1.544795207590968e-05
-2.615028336976532e-05
2.073559325902763e-05
-2.654762491598748e-05
2.612621599213614e-05
-2.704826859863837e-05
3.16422387584058e-05
-2.762976527205392e-05
3.730094475538001e-05
-2.826608591921925e-05
4.311170083868518e-05
-2.891189833854851e-05
4.907268350500509e-05
-2.949702926328559e-05
5.516489556594198e-05
-2.991724204506877e-05
6.134308882005564e-05
-3.002102208329195e-05
6.752451447816349e-05
-2.959764026149678e-05
7.357220675004798e-05
-2.835969346127515e-05
7.92654433100593e-05
-2.590664906611653e-05
8.426270961644665e-05
-2.169419679294361e-05
8.807147974357432e-05
-1.504148622393619e-05
9.00356337486191e-05
-5.182990899389657e-06
8.931729965285328e-05
8.665279985272994e-06
8.49504361926838e-05
2.72227705773325e-05
7.571314108377126e-05
5.114051901285346e-05
5.995613387351151e-05
8.060182442811678e-05
3.548178993896933e-05
0.0001156769780554599
0.0001480401740383743
5.07715683783693e-06
-3.07588163033996e-05
1.017343288319621e-05
-3.09887105295475e-05
1.534978238307181e-05
-3.132663298277574e-05
2.061194617490307e-05
-3.180978882182784e-05
2.598219597025535e-05
-3.241851850296614e-05
3.148624509217051e-05
-3.313381449004267e-05
3.714576643680803e-05
-3.392560733533945e-05
4.297625030621289e-05
-3.474238223650714e-05
4.898445507095127e-05
-3.550523399349981e-05
5.516304274225842e-05
-3.609582959998503e-05
6.148205653397672e-05
-3.634003566503023e-05
6.787886039039675e-05
-3.599444292260272e-05
7.423982975875067e-05
-3.472065825081822e-05
8.036292397917831e-05
-3.202973276127616e-05
8.591335961036402e-05
-2.72446158215778e-05
9.039422533798655e-05
-1.952233297555459e-05
9.313844413880703e-05
-7.927193918938345e-06
9.327933932800852e-05
8.524397040183115e-06
8.987123466330536e-05
3.063088429029082e-05
8.165031571543613e-05
5.936144779589499e-05
6.666380529713918e-05
9.558836146939983e-05
4.160917771970294e-05
0.0001407316803667201
0.000189652470062972
5.040940108061529e-06
-3.579975653244105e-05
1.009987917670399e-05
-3.604764971798146e-05
1.524268126187064e-05
-3.646943519490614e-05
2.047483510353106e-05
-3.704194277411437e-05
2.582124334589298e-05
-3.776492682399359e-05
3.131127773325438e-05
-3.862384890444421e-05
3.697159175324741e-05
-3.958592130704411e-05
4.282478052435311e-05
-4.059557085559293e-05
4.888773085000673e-05
-4.156818403562437e-05
5.516708307294166e-05
-4.237518138138613e-05
6.165160213270029e-05
-4.282455409538802e-05
6.83040179545096e-05
-4.264685634208303e-05
7.503982324425385e-05
-4.14564555979622e-05
8.167844422629479e-05
-3.866833708796367e-05
8.789030426795754e-05
-3.345645176195081e-05
9.316861275148696e-05
-2.480061667064549e-05
9.683956562527066e-05
-1.159813027243611e-05
9.803725425599267e-05
7.326718775370234e-06
9.585188092017367e-05
3.281626487210638e-05
8.905859834105414e-05
6.615473796853107e-05
7.552366494494455e-05
0.0001091233206826076
5.08466696276818e-05
0.000165408767688862
0.0002405121200558316
5.013962355882519e-06
-4.081371892828256e-05
1.002472270173561e-05
-4.105841007562215e-05
1.512969449808539e-05
-4.157440698746377e-05
2.032640899197862e-05
-4.22386572136778e-05
2.56439611696551e-05
-4.308247886491917e-05
3.111601654991553e-05
-4.409590402736376e-05
3.67746781495035e-05
-4.524458248139867e-05
4.265061090183465e-05
-4.64715029556918e-05
4.877242438432111e-05
-4.768999656733564e-05
5.516321780079296e-05
-4.876597345343194e-05
6.183469570855465e-05
-4.949603011152915e-05
6.878173448878868e-05
-4.959388966908004e-05
7.595572531682995e-05
-4.863043080963044e-05
8.320096569265193e-05
-4.591354682616525e-05
9.01951187896211e-05
-4.045056237920043e-05
9.64210595733724e-05
-3.102651568490434e-05
0.000101151859796683
-1.632890853715101e-05
0.0001035592259210059
4.919356058341954e-06
0.0001028384783226947
3.35370083848157e-05
9.795232385054961e-05
7.104089348511075e-05
8.691091185664642e-05
0.0001201647728345152
6.513811659922835e-05
0.0001871817231529992
0.0003056720638307622
-1.09472230794447e-05
1.109768437834208e-05
-1.807339971278248e-05
7.276047254157313e-06
-2.065448344114743e-05
2.730001537992583e-06
-1.967568774109887e-05
-8.309223435196145e-07
-1.677701100476437e-05
-2.751790650514613e-06
-1.322993363197011e-05
-3.401061209122736e-06
-9.786747843265539e-06
-3.29791483836444e-06
-6.771559401838021e-06
-2.870550725064878e-06
-4.336226853092333e-06
-2.291232911131963e-06
-2.428982568353181e-06
-1.763603005703566e-06
-1.08705760881132e-06
-1.198671936819813e-06
-1.437057528094151e-07
-8.004392841351381e-07
4.413799678192477e-07
-4.424541930223901e-07
7.477995627933145e-07
-1.64023452479608e-07
8.287764569489852e-07
6.12266448091868e-08
7.465120235165616e-07
2.243165801813808e-07
5.50788770880149e-07
3.376635478434723e-07
2.855876290141675e-07
4.070675282165282e-07
4.27415610177037e-07
-1.198552848870531e-05
2.323379553792888e-05
-1.940147519598097e-05
1.484193233234065e-05
-2.175480385534344e-05
5.232262984018541e-06
-2.029777184350514e-05
-2.14009657483309e-06
-1.694706974991958e-05
-5.955633753976002e-06
-1.304959034494336e-05
-7.152552843729096e-06
-9.340973538232497e-06
-6.861286407233653e-06
-6.178401253524978e-06
-5.888507363169945e-06
-3.64173444123111e-06
-4.683818718184482e-06
-1.75489585573165e-06
-3.50681655315792e-06
-3.716983505412571e-07
-2.438630736539766e-06
5.290209477225718e-07
-1.558256192115667e-06
1.046945113750427e-06
-8.177567689827623e-07
1.264602783959644e-06
-2.392941920905077e-07
1.249583761203887e-06
2.184411843699698e-07
1.070043379572994e-06
5.459018823379961e-07
7.694506182666809e-07
7.801899664041412e-07
3.913511103670305e-07
9.270270195989855e-07
9.60588243380757e-07
-1.338091806889728e-05
3.676554463847243e-05
-2.114332858555845e-05
2.275441285055374e-05
-2.313026380138372e-05
7.368153628643406e-06
-2.105871070865598e-05
-4.063827804303806e-06
-1.720349246287905e-05
-9.664048312256906e-06
-1.300574520840916e-05
-1.120436766397316e-05
-9.157171419059651e-06
-1.056466377966179e-05
-5.930738589030292e-06
-8.970365833398252e-06
-3.383542499256115e-06
-7.086968366597668e-06
-1.485903414619826e-06
-5.26085900350154e-06
-1.529010618754414e-07
-3.628421297951526e-06
6.994120831544837e-07
-2.26768813057072e-06
1.199406462025051e-06
-1.175148789485232e-06
1.371902294158435e-06
-2.69420472612684e-07
1.345853798498313e-06
3.866692541989202e-07
1.140225923075987e-06
8.935598851932185e-07
8.152385876290479e-07
1.247096995179991e-06
4.144100084616028e-07
1.469702059103265e-06
1.516806397268646e-06
-1.55966049847246e-05
5.251337510266584e-05
-2.389203717035227e-05
3.120011131077886e-05
-2.525710782451372e-05
8.882200985930285e-06
-2.220236215364716e-05
-6.970816827284648e-06
-1.758222274904461e-05
-1.413747230850732e-05
-1.294902457504729e-05
-1.569171668375207e-05
-8.924352561128895e-06
-1.444421135929863e-05
-5.62711513922048e-06
-1.212308926438122e-05
-3.076205981553264e-06
-9.493881593321969e-06
-1.195638041250004e-06
-6.997872660341136e-06
8.998175366741577e-08
-4.770866855735503e-06
9.238901813679376e-07
-2.958747164659441e-06
1.365045740515895e-06
-1.473730452214779e-06
1.514446510807358e-06
-2.764775528469017e-07
1.441805860591597e-06
6.014656216568126e-07
1.207087194329451e-06
1.270286408263087e-06
8.575811872140383e-07
1.738501549468396e-06
4.353063463902541e-07
2.033802845782001e-06
2.09390061701827e-06
-1.881030230576932e-05
7.147553967541088e-05
-2.771897475227177e-05
4.025928594439753e-05
-2.806385721222013e-05
9.376041670031412e-06
-2.358784494519506e-05
-1.129920748322383e-05
-1.796094702298113e-05
-1.961780239629584e-05
-1.280205990975387e-05
-2.070486953897412e-05
-8.532370138051027e-06
-1.856887171279635e-05
-5.160201463588422e-06
-1.535082279416595e-05
-2.619080202630332e-06
-1.189107281050926e-05
-8.192876383483829e-07
-8.654166455659873e-06
4.317845424915926e-07
-5.878812666477318e-06
1.196377766690605e-06
-3.580532781322244e-06
1.563021842272433e-06
-1.697838022641963e-06
1.679428258035379e-06
-2.505743414057468e-07
1.564181052863195e-06
8.588370005589561e-07
1.292641458138653e-06
1.683804226735741e-06
9.116372477627193e-07
2.261376007524105e-06
4.616299737892763e-07
2.625608568667479e-06
2.697291271925509e-06
-2.324482700040464e-05
9.487326905514033e-05
-3.264946752003879e-05
4.981441858470899e-05
-3.129670226741993e-05
8.17201550500888e-06
-2.497398438108074e-05
-1.747470423988405e-05
-1.817195758337162e-05
-2.627362020618485e-05
-1.244542636438209e-05
-2.628583195302211e-05
-7.947291550487854e-06
-2.292209588097147e-05
-4.539204324375195e-06
-1.861457126748252e-05
-2.065638964671313e-06
-1.422078832060806e-05
-3.010080737042578e-07
-1.027536602735211e-05
8.505070592373124e-07
-6.887259375976353e-06
1.536868723714889e-06
-4.124138091600887e-06
1.845233031371655e-06
-1.863711772125976e-06
1.883659667978532e-06
-1.46733299148872e-07
1.714716038233886e-06
1.169865911329166e-06
1.397861502301375e-06
2.142600373787464e-06
9.780924042121745e-07
2.822980351493918e-06
4.938513644680322e-07
3.251614001828689e-06
3.3328694781489e-06
-2.931392287004396e-05
0.0001243162928220274
-3.872047121714799e-05
5.937004379868332e-05
-3.448499254795655e-05
4.085364162453989e-06
-2.606182575094462e-05
-2.575220735611422e-05
-1.811540578155933e-05
-3.407507157725696e-05
-1.184153223639846e-05
-3.241443843015638e-05
-7.157593507050699e-06
-2.746127133613934e-05
-3.733533074366333e-06
-2.189440599991743e-05
-1.344567576568703e-06
-1.646599649553005e-05
3.081899881748695e-07
-1.178477124596073e-05
1.369041456181749e-06
-7.805109999490589e-06
1.915033547132592e-06
-4.527433662717409e-06
2.163965149929831e-06
-1.970206706799065e-06
2.124877592759033e-06
3.457256387932497e-08
1.89212926609107e-06
1.544653539849996e-06
1.521707615648306e-06
2.654920116286054e-06
1.056249991517217e-06
3.430231387296348e-06
5.317222747820554e-07
3.917865200649635e-06
4.006278697601787e-06
-3.760356020309181e-05
0.0001625493632540612
-4.568514834263494e-05
6.754746310544781e-05
-3.718075545530193e-05
-4.266564106465174e-06
-2.674820638023812e-05
-3.605219401610153e-05
-1.77003372818205e-05
-4.298362165932584e-05
-1.086869008131715e-05
-3.910173609424239e-05
-6.008938022625497e-06
-3.217646740262748e-05
-2.644284173771386e-06
-2.5114961554071e-05
-3.761948564890246e-07
-1.859043098437185e-05
1.129855580873592e-06
-1.314755663288644e-05
1.981654085594063e-06
-8.513983779285335e-06
2.432967135012051e-06
-4.836117634276849e-06
2.534639065379665e-06
-1.929503164177333e-06
2.400294229385909e-06
3.110791197420028e-07
2.094033985274568e-06
1.992899624744348e-06
1.662616752625724e-06
3.228184009572953e-06
1.145047015606052e-06
4.089544268122309e-06
5.744367345385366e-07
4.630149593544823e-06
4.722353905825133e-06
1.049786776071458e-05
-5.131158645357447e-05
2.113531969210385e-05
-5.169586166878329e-05
3.187427294783918e-05
-5.231335981115021e-05
4.282546557051059e-05
-5.318984922469549e-05
5.405623033607144e-05
-5.43132427572207e-05
6.563874480164398e-05
-5.567841725024161e-05
7.765398527484401e-05
-5.725982119563708e-05
9.018688348216645e-05
-5.900439868784354e-05
0.0001033274750416651
-6.083058466284475e-05
0.0001171670774460319
-6.260557099448913e-05
0.000131791081849724
-6.412002751952519e-05
0.0001472816494494785
-6.508443617179912e-05
0.0001636431695779919
-6.499189512722365e-05
0.0001806172902252218
-6.288756785924497e-05
0.0001975706208407122
-5.740376556153549e-05
0.0002135472686078758
-4.70030440576055e-05
0.0002274828411151977
-3.026441454032648e-05
0.0002383521338384516
-5.949918364853555e-06
0.0002450338022831297
2.685538052523492e-05
0.0002471336718618003
6.894109992193367e-05
0.0002464132180961465
0.000120885350862
0.0002551781347797418
0.0001784171942827896
0.0002311063351875699
0.0003297886949467195
1.019555364668399e-05
-6.15071379740555e-05
2.052412589469337e-05
-6.202443156979395e-05
3.099973334300734e-05
-6.278896460282304e-05
4.169070814971064e-05
-6.388082088891888e-05
5.268033497851641e-05
-6.530286576051359e-05
6.405951646460138e-05
-6.705759395138001e-05
7.59323657844382e-05
-6.913266437407567e-05
8.841931715270629e-05
-7.149134199752733e-05
0.0001016653551690513
-7.407661191733627e-05
0.0001158421247869032
-7.678232590212424e-05
0.0001311546876963541
-7.94325694623165e-05
0.000147874360918757
-8.180405100573695e-05
0.0001661991753941578
-8.33165772152145e-05
0.0001859454804781076
-8.263366898185156e-05
0.0002064472817558369
-7.790533771749676e-05
0.00022666390581194
-6.721947340972357e-05
0.0002454596728205949
-4.906006966779818e-05
0.0002620423833390117
-2.253265485492784e-05
0.0002756717780077713
1.322591436371628e-05
0.0002851479683195578
5.946493234477628e-05
0.0002936726737212651
0.0001123607527428562
0.0003052628974928814
0.0001668272236399236
0.0002224850456952311
0.0003138845971937986
9.857936636597562e-06
-7.136506818791992e-05
1.983091074881128e-05
-7.19973987964043e-05
2.995660450348355e-05
-7.291465076285527e-05
4.030312324478317e-05
-7.42273309791166e-05
5.095994610932384e-05
-7.595967853126745e-05
6.203139992271498e-05
-7.812903562181103e-05
7.364138928580163e-05
-8.074263866025999e-05
8.594156497226565e-05
-8.379149842984064e-05
9.912752362955011e-05
-8.726254540286728e-05
0.0001134473924357479
-9.110216075212836e-05
0.0001292323231886543
-9.521745195621839e-05
0.0001469726211995574
-9.954421377644764e-05
0.0001670498884565083
-0.0001033935794309368
0.0001892874835463193
-0.0001048709172454681
0.0002129563528463051
-0.0001015738730938139
0.0002368992483684927
-9.116212077357146e-05
0.0002596730836043158
-7.183376401275789e-05
0.0002803347606653685
-4.319435089817059e-05
0.0003010130754081062
-7.452634007343823e-06
0.0003121265132949405
4.835132033300608e-05
0.0003165384725677068
0.0001079486865534949
0.000319478998983447
0.000163886655942193
0.0002156906062684409
0.0003262735160102412
9.439498880851474e-06
-8.080455211791116e-05
1.898589230405705e-05
-8.154377643883329e-05
2.867801088062051e-05
-8.260675221692612e-05
3.858706859030302e-05
-8.413636964984877e-05
4.880543865845972e-05
-8.61780269815246e-05
5.944391443997567e-05
-8.876748605760944e-05
7.063821577884718e-05
-9.193690928679081e-05
8.256173534249041e-05
-9.57149796673808e-05
9.544762012628509e-05
-0.0001001483812175955
0.0001096045879751106
-0.0001052590638228878
0.0001254804694965156
-0.0001110932427911315
0.0001437848679688097
-0.0001178483493799843
0.0001650041128918588
-0.0001246123951645668
0.0001888414475952355
-0.0001287078057667007
0.000214464371153002
-0.0001271964657740999
0.0002406832088799855
-0.0001173807869689151
0.000266230943412208
-9.738134864684968e-05
0.0002934008046309962
-7.036143869445313e-05
0.0003083892235370348
-2.242717743538569e-05
0.0003106540089558701
4.614452463586508e-05
0.0003140087658052084
0.0001046668887595321
0.0003155147900293304
0.0001624614990467486
0.0002107680112657962
0.0003204372690245146
8.952427832659298e-06
-8.975695095011723e-05
1.800223469877237e-05
-9.059355304939025e-05
2.718309221243981e-05
-9.178757734028896e-05
3.656611405574322e-05
-9.351935615099248e-05
4.624175893231871e-05
-9.585363268704249e-05
5.631982029142607e-05
-9.884550247657704e-05
6.693762908667972e-05
-0.0001025546648703686
7.827719318590083e-05
-0.0001070544790881818
9.058891455997821e-05
-0.0001124600223261028
0.000104219025520689
-0.0001188890710470999
0.0001197009656685968
-0.0001265750412637542
0.0001379077521958857
-0.0001360547091372912
0.0001592270726027715
-0.000145931193436195
0.0001829583993160067
-0.0001524387733717459
0.0002083359036605702
-0.0001525738661799499
0.0002339723801661048
-0.0001430174525043267
0.0002556306287023475
-0.0001190232938665309
0.0002842169172948632
-9.883307407635399e-05
0.0002843541439403796
-2.26339968427611e-05
0.0003041548366931891
2.726786251369066e-05
0.0003141348335090976
9.702142167059306e-05
0.0003090193299330225
0.0001702927538343977
0.0002091815747985485
0.0003109738476221713
8.410191835683685e-06
-9.816709470060957e-05
1.690278484603421e-05
-9.908609646059683e-05
2.550575200573393e-05
-0.0001003904921087217
3.428656352483249e-05
-0.0001023001116126189
4.332880787646258e-05
-0.0001048958160157735
5.273429013540179e-05
-0.0001082509159235781
6.263223928863558e-05
-0.0001124525343480629
7.320052450140738e-05
-0.0001176226700682463
8.468743250926744e-05
-0.0001239468164788657
9.744917597101578e-05
-0.0001316506733990558
0.0001120256342667783
-0.0001411513159786171
0.0001293058296783076
-0.0001533343397076254
0.0001492816210636614
-0.0001659065735092552
0.0001710237363763726
-0.0001741808734404044
0.0001935977308053915
-0.0001751606462397914
0.0002148075477632511
-0.0001641058002563661
0.0002283706357277378
-0.0001344875201869675
0.0002512358408810676
-0.0001224045388970862
0.0002871971400426751
-5.833719220231437e-05
0.000305220221288498
7.576467888075743e-06
0.0003129397100433568
8.918790545019293e-05
0.0003133206092110047
0.000168946539413477
0.0002207666004854386
0.0003011081001913131
7.834087625994039e-06
-0.0001060011129407515
1.572762913566659e-05
-0.0001069795671584844
2.370754610481253e-05
-0.0001083703352570478
3.183584245725888e-05
-0.0001104283300607793
4.018593213243489e-05
-0.0001132458227612217
4.884748448231524e-05
-0.0001169123760526015
5.793503834053656e-05
-0.0001215399840714712
6.76129467607089e-05
-0.0001273004590910987
7.811486171474525e-05
-0.0001344485921266747
8.974996331890003e-05
-0.0001432856107667226
0.0001028891779035381
-0.0001542903334208592
0.0001183426811049724
-0.0001687872479916838
0.0001358075741556638
-0.0001833714279145203
0.0001536869485920293
-0.0001920173129140673
0.0001766497792677793
-0.0001979105550870473
0.0001891298685817462
-0.0001779781312594167
0.0002141014943858127
-0.0001551065224111466
0.0002102800430316809
-0.0001194068534296412
0.0002215357805555029
-7.199656611908711e-05
0.0002418699455612366
-1.57847407635749e-05
0.0002576229715081972
7.166084721702433e-05
0.0002698560119381079
0.0001556562606286791
0.0002073900767698045
0.000284419415895875
7.254905910415918e-06
-0.0001132559331780625
1.453686128828805e-05
-0.0001142614356136033
2.188216917479528e-05
-0.0001157155532794619
2.934760105235944e-05
-0.0001178936689625545
3.699659171909059e-05
-0.0001208947146272795
4.490414766443313e-05
-0.00012481982302347
5.316280132789055e-05
-0.0001297985197140831
6.19029834964963e-05
-0.000136040510255393
7.131112464856357e-05
-0.0001438565773675414
8.158004067040356e-05
-0.0001535543732160623
9.294236802566792e-05
-0.0001656524805451851
0.0001061002254769918
-0.0001819502968338992
0.0001199304757387612
-0.0001969394686441812
0.0001376289819025464
-0.0002098753893268988
0.0001481724236565253
-0.0002088662457240897
0.0001628647678249796
-0.0001909512514009358
0.0001462287114140602
-0.0001403100390244406
0.0001231933773429636
-9.944270376908564e-05
0.0001219777188654057
-7.311666605654197e-05
0.0001418583846638976
-3.733885546902391e-05
0.0001723746848303241
4.015954879105462e-05
0.0002001518542629398
0.0001272941112920131
0.0001762921503772601
0.0002319562204935795
6.708266361346559e-06
-0.0001199641119364102
1.340191425648468e-05
-0.0001209549931801755
2.01394304854869e-05
-0.0001224529741788181
2.696842672400267e-05
-0.0001247225640052695
3.393931079535664e-05
-0.0001278654913497523
4.110369114710671e-05
-0.0001319840930191581
4.852480890499566e-05
-0.0001372195320404205
5.629791292516516e-05
-0.0001438134859288301
6.45109774653719e-05
-0.0001520715631632425
7.346987843414267e-05
-0.0001625017940752112
8.325091448010649e-05
-0.0001752015853164484
9.750683607852089e-05
-0.000196477149832223
0.0001059288817714269
-0.000208232487588323
0.0001310316896529908
-0.0002331555812766118
0.000141515956031537
-0.0002178110335784489
0.0001044783314828259
-0.0001564059745685809
5.857313636549159e-05
-9.920921790480152e-05
3.759801881934254e-05
-8.012422628587857e-05
3.738950857170466e-05
-7.311342232147998e-05
5.252064071631428e-05
-5.269129541959894e-05
8.30909278719877e-05
9.102567986731641e-06
0.0001191388856147507
9.122518203268292e-05
0.0001316499812780426
0.000164338088245673
6.212691795429482e-06
-0.0001261767262369277
1.234818404635208e-05
-0.0001270903949133558
1.850868074496256e-05
-0.0001286133514947672
2.472014527866128e-05
-0.0001309338823199727
3.100073219476429e-05
-0.0001341496999457933
3.740678419151453e-05
-0.000138398960191289
4.406066324896496e-05
-0.0001438390951885604
5.109617009265612e-05
-0.0001506815005859523
5.841697506771456e-05
-0.0001590661996935584
6.929751566146258e-05
-0.0001752739061586352
7.73441557530145e-05
-0.0001875337795020757
7.604509878454785e-05
-0.0001980267297025324
8.713755087428304e-05
-0.0002179919097774768
0.0001094421063365107
-0.0002503518130337248
9.494782786383589e-05
-0.0002044758546511394
3.893391394602898e-05
-0.0001045758309222894
3.466292803895973e-06
-6.484057880661945e-05
-9.919935171104347e-06
-6.664035595586217e-05
-1.689279262675501e-05
-6.602428769829886e-05
-1.984885212075864e-05
-4.961002078390194e-05
-4.18907896142578e-06
-6.239051459598759e-06
3.259731240280655e-05
5.452417044598065e-05
8.752864785633112e-05
7.698757414109967e-05
5.779844532736405e-06
-0.0001317871345333924
1.1374039192774e-05
-0.0001324950235231774
1.697006733709295e-05
-0.0001339808315657881
2.263822521816921e-05
-0.0001361899628569217
2.840335189891555e-05
-0.0001402297423774394
3.448335249013234e-05
-0.0001459100942703788
4.15886544827855e-05
-0.0001537475603927392
5.36483655646062e-05
-0.0001670851478699671
5.981853900764074e-05
-0.0001683343821642951
7.315358435881197e-05
-0.0001820452337050677
8.129464653914774e-05
-0.0001936764044318293
8.320757837008513e-05
-0.0002015697699402325
7.057210228821926e-05
-0.0002070527903196416
5.241385012690896e-05
-0.0002321762412752213
2.786783409916789e-05
-0.0001845379325922255
-1.772103223651381e-05
-6.101919061849353e-05
-3.501968423774629e-05
-4.752494872730698e-05
-5.031316220936822e-05
-5.126268248307431e-05
-6.488597109676698e-05
-5.150793685540715e-05
-7.605040658397346e-05
-3.862573584455829e-05
-7.549571367631417e-05
-6.777475569019638e-06
-5.654445238468987e-05
3.615564583420769e-05
6.133739256996465e-05
-2.938297001266043e-05
5.751412248084607e-06
-0.0001413739667767157
1.129557779961409e-05
-0.0001420367341066925
1.65757180124777e-05
-0.0001435526979789937
2.148708658784218e-05
-0.0001456294929108338
3.351871199923583e-05
-0.0001475062449196038
4.592524900868995e-05
-0.0001551945425652531
5.903207011672375e-05
-0.0001641226213380145
7.055008205988895e-05
-0.0001768170469670125
8.809856319715004e-05
-0.0001856000736005052
9.825181538640791e-05
-0.0001929170334152104
9.731163261885394e-05
-0.00019414257560301
8.214707619650519e-05
-0.0001886476322328232
5.510130515204935e-05
-0.0001813732499510717
3.476377108619292e-05
-0.0002114509229430126
-2.643235394837528e-06
-0.0001550778755223854
-3.796046554139161e-05
-2.593558886164111e-05
-5.887290495260104e-05
-2.648398630037212e-05
-7.875986770481567e-05
-3.128632768965845e-05
-9.834064717317049e-05
-3.201907414616813e-05
-0.0001152650706364843
-2.196775884086696e-05
-0.0001242585586965572
2.146301852987836e-06
-0.0001226593350530684
3.505815550216393e-05
5.91143589245884e-05
-0.0001192530122595971
6.964697514150975e-06
-0.000147391201560762
1.43134866914882e-05
-0.0001484787864903676
2.219903591045901e-05
-0.0001507833185180998
3.148805113388462e-05
-0.0001546124393392271
4.41980596939739e-05
-0.0001598480811182745
5.743160028861286e-05
-0.0001684895938198661
7.218949725631388e-05
-0.0001791823434064612
8.535830054429913e-05
-0.0001908102625830567
9.718091501862257e-05
-0.0001986512898516022
0.000102606845359197
-0.0001999219318867419
9.731976405917646e-05
-0.0001904194468825405
7.706632102812856e-05
-0.0001704945929231122
4.709102610752042e-05
-0.0001518659866753158
2.868728551440653e-05
-0.0001927233385335746
-2.217708725566129e-05
-0.0001086275918105527
-5.317118625924536e-05
4.255786405221569e-06
-7.584180128416197e-05
-3.6146847545658e-06
-9.667710887412933e-05
-1.030815744592334e-05
-0.0001172169504994333
-1.147347686308147e-05
-0.0001355885957094195
-3.723906879331962e-06
-0.0001484129533238455
1.494634979069736e-05
-0.0001546413999241495
4.162997765357106e-05
6.559738239687017e-05
-0.0001602726215298802
6.21952195313882e-06
-0.0001540294373512575
1.363689070844516e-05
-0.0001564562686935368
2.188708939665563e-05
-0.0001596855348144099
3.101092028088965e-05
-0.0001643439647378357
4.195257797187415e-05
-0.0001715029234562581
5.404535661686186e-05
-0.0001814788249868555
6.690603290577648e-05
-0.0001931723529610262
7.884350305620648e-05
-0.0002041135811341818
8.847967803984189e-05
-0.0002098095894790757
9.230610743107496e-05
-0.0002053127204218098
8.728216937965274e-05
-0.0001867613113801061
6.88459061038849e-05
-0.0001538754775732087
4.991206474609807e-05
-0.0001328398797781705
1.856921885355296e-05
-0.0001631159427581036
-4.722692647125785e-05
-4.626165404421592e-05
-7.062866523436997e-05
2.648944462488417e-05
-8.864177578718001e-05
1.465547918091684e-05
-0.0001069398853414184
8.206525987733768e-06
-0.0001250757971998851
6.82246159245889e-06
-0.0001414835901804875
1.276948393344977e-05
-0.0001537095447299035
2.722599106853233e-05
-0.0001603714087699698
4.848412431289032e-05
6.997126100448892e-05