/*--------------------------------*- C++ -*----------------------------------*\
| =========                 |                                                 |
| \\      /  F ield         | OpenFOAM: The Open Source CFD Toolbox           |
|  \\    /   O peration     | Version:  2206                                  |
|   \\  /    A nd           | Website:  www.openfoam.com                      |
|    \\/     M anipulation  |                                                 |
\*---------------------------------------------------------------------------*/
FoamFile
{
    version     2.0;
    format      ascii;
    arch        "LSB;label=32;scalar=64";
    class       volScalarField;
    location    "0.2";
    object      rho;
}
// * * * * * * * * * * * * * * * * * * * * * * * * * * * * * * * * * * * * * //

dimensions      [1 -3 0 0 0 0 0];

internalField   nonuniform List<scalar> 
2268
(
1001.360168600708
1001.360168779174
1001.360168938575
1001.36016913578
1001.360169374857
1001.360169651631
1001.360169964594
1001.36017031273
1001.360170692401
1001.360171095057
1001.360171505284
1001.360171896875
1001.360170374253
1001.360159343177
1001.360121985071
1001.360031253277
1001.359851021367
1001.359525844504
1001.358964882701
1001.358000048547
1001.356255110077
1001.352695697469
999.7958931097861
1001.360172786204
1001.360173012393
1001.360173236284
1001.360173527784
1001.360173889412
1001.360174316823
1001.360174809093
1001.360175365
1001.360175979671
1001.360176641848
1001.36017733126
1001.360178012471
1001.360175444201
1001.360156930767
1001.360095876563
1001.359953890443
1001.359689446283
1001.359250384768
1001.35856214281
1001.357494158605
1001.355726559546
1001.352293349388
999.8758450651839
1001.360177143604
1001.360177409558
1001.360177696787
1001.360178077927
1001.360178553689
1001.360179119995
1001.360179776026
1001.360180519341
1001.360181342546
1001.360182230189
1001.360183155485
1001.360184070951
1001.360179462244
1001.360148552992
1001.360050483046
1001.359831818679
1001.359444445399
1001.358844793191
1001.357984986967
1001.356789038872
1001.355010923616
1001.351769761455
1001.110844299327
1001.360181704777
1001.360182002754
1001.360182349172
1001.360182811713
1001.360183389174
1001.360184077336
1001.360184873869
1001.360185772727
1001.360186760996
1001.360187815503
1001.360188898938
1001.360189944801
1001.360181751186
1001.360131540903
1001.359979884281
1001.359657806891
1001.359115360053
1001.35832556015
1001.357270961712
1001.355937275564
1001.354161124146
1001.35115929205
1001.343147609364
1001.360186311289
1001.360186629358
1001.360187018653
1001.360187536025
1001.360188177799
1001.360188937208
1001.3601898053
1001.360190764758
1001.360191786632
1001.360192826567
1001.360193818918
1001.360194647239
1001.360179938892
1001.360098868426
1001.359868433555
1001.359406845154
1001.358673643458
1001.357671412197
1001.356411870489
1001.354943873521
1001.35318866937
1001.350469222337
1001.343140687776
1001.360190549739
1001.360190864365
1001.360191255177
1001.360191763397
1001.360192378644
1001.360193082976
1001.360193844074
1001.3601946082
1001.360195295606
1001.360195795692
1001.360195950478
1001.360195478521
1001.360168233151
1001.360035764525
1001.359685910283
1001.359031634232
1001.35806210209
1001.356832351235
1001.355373243784
1001.353791034646
1001.352086180854
1001.349693562567
1001.340048268004
1001.360193646507
1001.360193896114
1001.360194182502
1001.360194521308
1001.360194881653
1001.36019521045
1001.360195404271
1001.360195302957
1001.360194681043
1001.360193239032
1001.360190540374
1001.360185784108
1001.360133169169
1001.359911697775
1001.359375590656
1001.358448314341
1001.357178851808
1001.355713194976
1001.354079999772
1001.352429651792
1001.350824891703
1001.348812474717
991.8834148318266
1001.360194023649
1001.36019405165
1001.360193976405
1001.360193758388
1001.360193315888
1001.360192505891
1001.360191036835
1001.360188476847
1001.360184236023
1001.360177544002
1001.360167223224
1001.360151018353
1001.36004602227
1001.359666645012
1001.358834936531
1001.357513901442
1001.355851349544
1001.354150595362
1001.352394890909
1001.350761965867
1001.349343399317
1001.347785044203
990.874137570124
0.9758900560615675
0.9758911376173169
0.9758929459620239
0.9758951604561895
0.9758973557892215
0.9758993267248577
0.9759010008447353
0.9759023808091547
0.9759035029873603
0.9759044137589008
0.9759051492077161
0.9759057554367522
0.9759062393149368
0.9759066254562112
0.9759069350515837
0.9759071807448747
0.9759073727857708
0.9759074939936151
0.9759074595681702
0.9758893825472634
0.9758904721932281
0.9758923739713309
0.9758946734849133
0.975896921638348
0.975898925328413
0.9759006208706894
0.9759020122215504
0.9759031402459207
0.975904052223443
0.9759047858083988
0.9759053867724804
0.9759058691326978
0.9759062540230782
0.9759065624778069
0.975906808977383
0.9759070024293524
0.9759071180185098
0.975907036210112
0.9758883929270162
0.9758895507916855
0.9758916439858784
0.975894109641032
0.9758964447083379
0.9758984994574069
0.975900226006941
0.9759016348367654
0.9759027713406551
0.9759036852796742
0.9759044217339707
0.9759050175196907
0.9759054970735853
0.9759058787632496
0.9759061852197283
0.9759064309263666
0.9759066235331543
0.9759067338535297
0.9759066444761926
0.9758870650774712
0.9758884243185358
0.9758908844954691
0.9758937233356793
0.9758960352483138
0.9758981133970818
0.9758998693253385
0.9759012944108909
0.9759024366775519
0.975903350369747
0.9759040853299451
0.9759046751805945
0.9759051489006245
0.9759055253249266
0.9759058277544245
0.9759060702632846
0.9759062604524553
0.9759063656552268
0.9759062734288707
0.9758856433208152
0.9758872316433961
0.9758907775013533
0.9758952869662456
0.9758960462065855
0.9758978159701122
0.9758995663659022
0.9759009991686771
0.9759021410743
0.9759030486028657
0.9759037760982802
0.9759043573293625
0.9759048217418717
0.9759051907949418
0.9759054874263819
0.9759057251156954
0.9759059115950736
0.9759060121081469
0.9759059151001983
0.9758820055846247
0.9758876056242448
0.9758977936091195
0.9759105452327249
0.9758985272208314
0.9758978078498944
0.9758993376504426
0.9759007539195229
0.9759018897584617
0.9759027885564812
0.9759035058420568
0.975904077123488
0.9759045300696126
0.9759048903456017
0.9759051792961498
0.9759054113015297
0.9759055937755591
0.9759056892676873
0.9759055815662225
0.9758734140413285
0.9759071362378229
0.9759667684257882
0.9759934927855155
0.9759133409720426
0.9758990976006018
0.9758992615080175
0.9759005514909201
0.9759016570857958
0.9759025420032162
0.9759032476617046
0.9759038097059636
0.9759042550748538
0.9759046091447537
0.9759048909954925
0.9759051172583032
0.9759052949512537
0.9759053836223944
0.9759052873441537
0.9764313529681065
0.9760176683819312
0.9765092190984527
0.9763187989683453
0.9759778757542495
0.9759061020966924
0.9758997457216967
0.9759004648164067
0.9759014749977905
0.9759023090359845
0.9759029768793589
0.9759035083269175
0.9759039325265209
0.9759042736076926
0.9759045474846059
0.9759047661275067
0.9759049346027382
0.9759050225070017
0.9759049429069012
1001.360186029013
1001.360185484843
1001.36018449594
1001.360182881034
1001.360180459584
1001.360176889763
1001.360171437491
1001.36016305931
1001.360150363549
1001.360131545238
1001.360103677654
1001.360060904607
1001.359849440941
1001.359190169696
1001.357889591242
1001.355994849791
1001.353772279375
1001.351631270779
1001.349574475178
1001.347670716775
1001.346177560677
1001.345110511564
991.7696180884086
1001.360150751304
1001.360147879314
1001.360143167248
1001.360135924427
1001.360125648667
1001.36011125966
1001.360090273131
1001.360059378953
1001.360014327215
1001.359949693257
1001.359855989889
1001.359713389451
1001.35912510613
1001.357599912212
1001.355027371858
1001.351762938901
1001.348369678562
1001.345386697637
1001.325645404627
1001.306934342497
1001.312131514274
1001.331304757796
1000.715999175925
1001.360036013758
1001.360027019687
1001.360012499847
1001.359990608557
1001.359960359545
1001.359918902894
1001.359859233709
1001.359772831829
1001.359649288277
1001.359475609223
1001.359227089201
1001.358850517338
1001.357405795892
1001.354223335483
1001.349614706346
1001.344514054203
1001.339821140785
1001.336028816716
1001.33384480521
1001.333270595091
1001.333791173323
1001.334934315901
1001.335901349306
1001.359742854272
1001.359720659676
1001.359684688593
1001.359631126015
1001.359558858608
1001.359461327058
1001.359321535267
1001.359121292796
1001.358839813222
1001.3584518311
1001.357904725174
1001.357083325373
1001.354019909292
1001.348259820726
1001.34106877176
1001.334071120377
1001.328388847412
987.1160252034344
951.3028376607152
898.6922389825503
849.3764951561699
916.3566243856511
1001.331798192489
1001.359102816931
1001.35905681886
1001.358980888023
1001.358869035209
1001.358722057772
1001.358526189893
1001.358245108089
1001.357846195696
1001.357295520824
1001.356552639827
1001.355525879624
1001.35401199579
1001.348473528961
1001.339692111576
1001.330199107845
1001.321941248389
875.8952893719634
568.8451505099792
142.1915783198477
57.16714264132003
82.16323124009338
150.1740101544274
464.467510384975
1001.357873365361
1001.357791691907
1001.357651676908
1001.357447322783
1001.357187047919
1001.356843376553
1001.356346877115
1001.355648312256
1001.354703357933
1001.353458104068
1001.351788440293
1001.349398234731
1001.340963926625
1001.330006654722
978.3064912956678
640.5460215636659
94.84696957777179
1.239333441167208
1.198425820137659
1.183766549967176
1.190806855165798
1.208686476283073
6.028824145313002
1001.355763470344
1001.355638697712
1001.355409954742
1001.355078001072
1001.35467072459
1001.35413443738
1001.353350321986
1001.352256448431
1001.350808542451
1001.348948966152
1001.346578890904
1001.343318131568
1001.332731119797
869.6803597486278
362.4783460007424
1.240720109678983
1.199198925255117
1.13929481403798
1.092849760205363
1.085338545092011
1.118932998548555
1.161245906213574
1.204420697064676
1001.352499430553
1001.352335703411
1001.352001277384
1001.351515221016
1001.350943548262
1001.350184555472
1001.349062915239
1001.34751150873
1001.345483590509
1001.342981862384
1001.340051826028
959.7804596559716
661.3714620706916
136.9542398074865
1.240262562930169
1.173309007587955
1.101445518145283
1.049097854684707
1.024180119703018
1.034952823336571
1.083756598356195
1.134844374982729
1.18090038712927
1001.347930279619
1001.347742670495
1001.347297019385
1001.346640683381
1001.345900174807
1001.344906020785
1001.343463516528
1001.341450221453
999.8876473183418
933.1506755337482
709.7671804995534
290.6294225379328
1.240649122501254
1.236531267595862
1.182511929720532
1.098974552028717
1.019251321254006
0.9994552238459486
1.005534532683508
1.025445932941306
1.06961965648019
1.121235463806868
1.164733688059667
1001.342149637575
1001.34193227915
1001.341337213134
1001.340446829144
998.1617277594435
974.3425197344387
908.2079453559644
773.8885629812241
517.4088810192732
223.7701390647906
8.970047120011561
1.235251957365024
1.204849912819249
1.91768965198864
1.579582031439285
1.066384029426541
0.9920549413149232
0.991613821012581
0.9997610021810638
1.019609340966067
1.055018366212807
1.102772738110453
1.14611187026065
761.8639090603094
738.7514661075793
691.7327982247492
600.1916180057016
468.4485713002238
319.4607925536674
171.9210363518242
46.40755815890363
1.236891927894205
1.212598231387722
1.18187260023745
1.151549758879279
1.151445279468159
14.16623195099558
3.316288613130627
0.9958504173929058
0.9846654580444864
0.9865094471908997
0.9937848968694553
1.010529223555777
1.039831977616156
1.079378687029687
1.115539996319891
40.47988843042209
29.16446819005865
9.62649362737463
1.239941591323099
1.227008434539903
1.213931165103143
1.194285927597802
1.17147500617039
1.14519646988598
1.119968374535105
1.101626435414951
1.090387224732036
1.116100238380408
16.60217828692673
3.606527549415376
0.9843587835994435
0.9809947769667863
0.9824859505662659
0.9876346034418043
0.9995503913353483
1.020797356250651
1.050163299603256
1.076097913432868
1.170119952816752
1.166882455533331
1.160738931210363
1.152172700487915
1.13832138209441
1.121515147976667
1.103109378575082
1.083595117101854
1.065762992765597
1.052314286413469
1.047145863637263
1.050513676717568
1.09705272960185
16.25851222043562
2.908491386172343
0.9797309579855026
0.9787674485606379
0.9795831928241834
0.9824974880600774
0.9894655936803571
1.002470187722416
1.020860087310076
1.036846235921111
1.089033426816821
1.084481653255935
1.079086491366672
1.072939873677033
1.062141729542273
1.049176754220914
1.035978561115673
1.023946718983669
1.01513191233592
1.011599608616483
1.01573778310697
1.028502870733843
1.122520884472068
3.431864058626403
1.655794619521491
0.977353258630676
0.9774887060663744
0.977770670784861
0.979120389162678
0.9825439937800181
0.9891527938297113
0.9987533826479701
1.007149326112788
1.028757572636408
1.026001042316401
1.022841448430276
1.018372540546769
1.011636038711937
1.003955791992587
0.9968664825521026
0.9916926127957822
0.9900228445387399
0.9938041242741623
1.00443257272989
1.02289407457265
1.664572678609263
1.122295785526989
0.9951984723472816
0.9767639218112638
0.9767633968016922
0.9767956280071185
0.97732335381746
0.9787365929823095
0.9815226260975933
0.9856689221625494
0.9893136681415884
0.9941879294444073
0.9927733386629521
0.991014348324339
0.9888327541111932
0.9855520271318895
0.9822027903696668
0.9798429382066104
0.9795607325642302
0.9829613155073765
0.991957417546566
1.018365628347826
1.055344037935893
1.678523962531128
1.075167262009133
0.9900673164196683
0.975478942919125
0.9763955206848998
0.9762904087763302
0.9764617290297462
0.9769587336635036
0.9779480909284456
0.9794287804880079
0.9807038879329101
0.9787431625463021
0.9781270635616538
0.9775428857920279
0.9769369285758085
0.9760687870916186
0.9754675395126999
0.9758430296362394
0.9782393230121418
0.9852337929239435
1.038377313826114
1.134739425913059
1.092497259340109
1.120338004366081
1.026804804531352
0.9841129656312837
0.9746960438860645
0.9762285103841816
0.9760468827956174
0.9760938785273198
0.9762429557763079
0.9765413237707216
0.9769816226041399
0.9773386673642172
0.9744239401801782
0.9743994333250428
0.9744141613838839
0.9744651593693514
0.9747030527757737
0.9751944728503287
0.9764933465127709
0.979920047607739
0.9943616114076042
1.124872364448142
1.135325418289716
1.046011282211812
1.022653292558753
0.9995403841713572
0.9798802435974485
0.9744968781546244
0.9761588548083053
0.9759371955131574
0.9759529316299105
0.975990594260831
0.976067292937249
0.9761773030330404
0.9762574772259568
0.9748331491752629
0.974960990656051
0.9750820606795521
0.9752672975680953
0.9755472643848192
0.9760492168511959
0.9772681064722337
0.9804038842046414
0.9983704773060078
1.113283052214434
1.112927354210535
1.005326719816856
0.9984773736891913
0.9871905105586914
0.9774124658688551
0.9746457116052025
0.9761290550335912
0.975891067856776
0.9759048203534293
0.9759124323249491
0.9759291676257095
0.9759524336921281
0.9759668530660106
0.9758809929446258
0.9759211035225819
0.9759546784041312
0.9760012178482164
0.9760719771997604
0.9762763850646935
0.9769761154667966
0.978907717167011
0.9841426293406381
1.000951787709334
1.013233741985785
0.992141954514101
0.9876779381363389
0.9811598786538224
0.9760366816864423
0.9749532080191174
0.9761116856799348
0.975871296873709
0.9758906857463285
0.9758913578894908
0.9758943563455222
0.9758985495452033
0.9759006092145442
0.9761004741860012
0.9760824517950843
0.976064327457311
0.976036576725821
0.9760099711592447
0.9760332376452413
0.9762608217528143
0.9770052303481263
0.9786113656393427
0.9811097863964681
0.9835329369483616
0.9895377918809176
0.9819054901559484
0.9779407940019725
0.9753840891227834
0.9752849654252025
0.9761022434819634
0.9758564735797211
0.975888621977002
0.9758863850514236
0.9758868576353704
0.9758875053257783
0.9758877427676256
0.9758991718580884
0.9758914459275356
0.9758849437855569
0.975875569509476
0.9758653801750495
0.9758612219874128
0.9758806927028139
0.9759833240277909
0.9762885717865527
0.9769041991113138
0.9779287129641163
0.9796073385699468
0.97907274158923
0.9763595252622322
0.9753240102530782
0.9755573170056323
0.9760814100712006
0.9758438227992738
0.9758907714983921
0.9758850773309353
0.9758855092421731
0.9758855671376205
0.9758855998937068
0.9758502980296261
0.9758549028608244
0.9758589869400177
0.9758656754439879
0.9758733521349864
0.9758782090443228
0.9758768726476447
0.9758692196507677
0.9758669537286869
0.9758950998914393
0.9759766626969689
0.9760658212005126
0.976144435478447
0.9757807205389346
0.9755631698756582
0.9757580908283189
0.9760224202825296
0.9758446652930878
0.9758921072713478
0.9758845262180137
0.9758852504794884
0.9758851986828659
0.9758852227725997
0.9759122568176899
0.9759110942776797
0.9759099376029488
0.9759083005698128
0.9759064849829023
0.9759040929302801
0.9758988328657415
0.9758874334683793
0.9758674717477697
0.9758395512883538
0.9758076961080843
0.9757768181330854
0.9757517011303114
0.9757514297926563
0.9757693206101569
0.9758675714286608
0.9759502891680401
0.9758590804251515
0.9758904385443402
0.9758843717658546
0.9758850394673565
0.9758849834847634
0.9758850244399193
0.9758890502246566
0.9758889116513261
0.9758887213171297
0.9758885435104696
0.9758882563936413
0.9758879035503633
0.9758878224075646
0.9758878240032814
0.9758863119253487
0.9758808083714491
0.975870087907864
0.9758561017612021
0.9758445011633289
0.9758438489503664
0.9758616603807959
0.9758921692449103
0.9759050532497733
0.9758739864404259
0.9758874518196963
0.9758843836837876
0.9758847339952474
0.9758847167978074
0.975884782712407
0.9758925577613716
0.975892375068545
0.9758921107357359
0.9758918767101176
0.9758917309413647
0.9758916168962006
0.975891354511457
0.9758908110394792
0.9758900223460666
0.9758890053515469
0.9758875114209495
0.9758853120360915
0.9758829318692215
0.9758819759510244
0.9758841013390829
0.9758882111738797
0.9758886310213662
0.9758816228552056
0.975885291698757
0.9758842632965959
0.9758843646043709
0.9758843890138784
0.9758844828811055
0.9758911649023658
0.9758909903761523
0.9758907388704684
0.9758904720231448
0.9758902096635939
0.9758899404622705
0.9758896375263423
0.9758892682023022
0.9758888033893337
0.9758882365010541
0.9758875910182653
0.9758868969694264
0.975886196417324
0.9758856073058537
0.9758853050039187
0.9758852453418154
0.9758848468062564
0.9758836902325899
0.9758842267212261
0.9758839537781511
0.9758839634074815
0.9758840167049674
0.9758841362388662
0.9758902926886035
0.9758901428226169
0.9758899145751408
0.9758896625564811
0.9758894145856728
0.9758891702149343
0.9758888995517073
0.9758885606157485
0.975888125265359
0.9758875943152165
0.9758869951608061
0.9758863694508555
0.9758857601382293
0.9758852046564468
0.9758847328493788
0.9758843535461544
0.9758840290942842
0.9758837255205279
0.9758836510246236
0.9758835451268583
0.9758835410477794
0.9758836122900115
0.9758837510732139
0.9758893901522321
0.9758892653622393
0.9758890657825205
0.9758888316790639
0.9758885870024347
0.9758883398693735
0.9758880770972488
0.9758877710290063
0.9758873956083322
0.9758869408155011
0.9758864180552116
0.9758858558567508
0.9758852904431699
0.975884756781396
0.9758842828296445
0.9758838866158456
0.975883574612936
0.9758833436079748
0.9758831954899867
0.9758831124030768
0.9758831097875232
0.9758831890824469
0.9758833367307952
0.9758884797944427
0.9758883804648619
0.9758882125399662
0.9758880044163906
0.9758877754137985
0.9758875374793378
0.9758872871978197
0.9758870070435396
0.9758866758273976
0.9758862806731865
0.9758858240948374
0.975885323896265
0.9758848078602211
0.9758843068588755
0.9758838491439364
0.9758834568990795
0.9758831446591361
0.9758829163427698
0.9758827605857046
0.9758826772790866
0.9758826724064668
0.9758827502299311
0.9758828962917603
0.9758875665937639
0.9758874910531415
0.9758873544342568
0.9758871755754185
0.9758869688001058
0.9758867470477297
0.9758865132251535
0.9758862580063654
0.9758859655646569
0.9758856227007096
0.9758852260984522
0.9758847850213712
0.9758843193897597
0.9758838552514834
0.9758834198431806
0.9758830374861747
0.9758827265110657
0.9758824947271714
0.9758823343071408
0.9758822459151315
0.9758822332182304
0.9758823006011895
0.9758824342522832
0.9758866512410432
0.9758865962820329
0.97588648787527
0.9758863378601234
0.9758861561705175
0.9758859551880893
0.9758857414365424
0.9758855115765992
0.9758852548368447
0.9758849593147617
0.9758846184112884
0.9758842348656511
0.9758838212347893
0.9758833976765434
0.9758829883646103
0.9758826177511081
0.9758823065752206
0.975882067073563
0.9758818998045174
0.9758818029389688
0.9758817789911122
0.9758818311510061
0.9758819465899905
0.9758857349163442
0.9758856963609216
0.9758856110882044
0.9758854863568436
0.9758853288445908
0.9758851497405995
0.9758849573523801
0.9758847524041272
0.9758845283067941
0.9758842750776797
0.9758839845677451
0.9758836548335197
0.9758832923136602
0.9758829114116335
0.9758825321868728
0.9758821769603867
0.9758818669495133
0.9758816197088245
0.9758814459051069
0.9758813400708871
0.9758813043074471
0.9758813393891852
0.9758814331411939
0.9758848185176733
0.9758847917126923
0.9758847234173055
0.9758846183427119
0.9758844811684289
0.9758843218833155
0.9758841495173123
0.9758839674000817
0.9758837721605639
0.9758835557665784
0.9758833094399361
0.9758830278217149
0.9758827121237279
0.975882371486484
0.9758820222160541
0.9758816851355945
0.9758813821643317
0.975881133238952
0.9758809521637936
0.9758808374874306
0.9758807910556094
0.9758808113280777
0.975880885926642
0.9758839025582975
0.9758838828913983
0.9758838252147822
0.9758837333276084
0.9758836110202836
0.9758834674298572
0.9758833117508056
0.9758831489479228
0.9758829779976127
0.9758827927019343
0.9758825843008241
0.9758823451276297
0.9758820723190675
0.9758817704326985
0.9758814520398491
0.9758811359633237
0.9758808440082583
0.9758805974120172
0.9758804122113317
0.9758802917072825
0.9758802374599861
0.975880246139267
0.9758803048612362
0.9758829872512937
0.9758829704383393
0.9758829175686049
0.975882832588805
0.9758827193054721
0.9758825864037535
0.9758824430779255
0.9758822952970606
0.9758821437863118
0.975881983905495
0.9758818072092191
0.9758816045491029
0.9758813699565927
0.9758811040684046
0.9758808158552412
0.9758805218113876
0.9758802431322701
0.9758800017564325
0.9758798155459362
0.9758796917051858
0.975879632613737
0.9758796343806123
0.9758796838142936
0.9758820720628952
0.9758820545294539
0.9758820018042316
0.9758819186234375
0.9758818093581068
0.9758816825926935
0.975881547494245
0.975881410675264
0.9758812741238115
0.9758811344539609
0.9758809836595242
0.9758808116838746
0.9758806102708693
0.9758803769175156
0.9758801174606168
0.9758798462671054
0.9758795836750441
0.9758793515217125
0.9758791683519398
0.9758790451316388
0.9758789842341583
0.9758789824485616
0.9758790270456168
0.9758811561757792
0.9758811350617365
0.9758810792570107
0.9758809943633014
0.9758808856284046
0.9758807617203464
0.9758806317923222
0.9758805028829618
0.9758803778635928
0.9758802542663921
0.9758801244715415
0.9758799778926543
0.9758798046073505
0.9758795996426483
0.975879366332318
0.9758791171700792
0.9758788714515738
0.975878650563157
0.9758784734520087
0.9758783534804425
0.9758782932659466
0.9758782910152252
0.9758783350547254
0.9758802374092241
0.975880211106451
0.9758801508456592
0.97588006299267
0.9758799534798468
0.9758798311710283
0.975879705181223
0.9758795827718264
0.975879467346517
0.9758793569811941
0.9758792443302137
0.9758791183872012
0.9758789680500335
0.975878786664282
0.9758785758274614
0.9758783468325314
0.9758781183268462
0.9758779113928142
0.9758777446123872
0.9758776310937355
0.9758775741277108
0.9758775726351762
0.9758776164249108
0.9758793132715099
0.9758792816413162
0.9758792177623491
0.9758791280360346
0.9758790189543816
0.975878899289799
0.97587877803817
0.97587866248865
0.9758785561951961
0.9758784574414948
0.9758783588420743
0.9758782489586016
0.9758781158832758
0.9758779519995998
0.9758777582762952
0.9758775457399416
0.9758773331607539
0.9758771415746531
0.9758769887371215
0.975876886061387
0.9758768360791997
0.9758768368198326
0.9758768788420936
0.9758783814448565
0.9758783466145197
0.9758782831075947
0.9758781963948409
0.9758780926024443
0.9758779798809565
0.9758778664817418
0.9758777591336242
0.9758776611022996
0.9758775706203615
0.9758774804051891
0.9758773792391855
0.9758772555985323
0.975877102461909
0.9758769215123592
0.9758767244242571
0.9758765301630417
0.9758763590282374
0.9758762265954952
0.9758761406056404
0.9758760999143081
0.9758760992211516
0.9758761294182928
0.9758774452464218
0.9758774113904373
0.9758773583136585
0.9758772866733861
0.9758772010587683
0.9758771066728779
0.9758770085416288
0.9758769104903858
0.9758768139997577
0.975876717471289
0.9758766164911047
0.9758765052955707
0.9758763792372848
0.9758762374700387
0.975876084490008
0.9758759295463774
0.9758757838031992
0.9758756565207407
0.9758755525970463
0.9758754730668356
0.9758754157591261
0.9758753783942654
0.9758753602119121
997.2668656711138
1001.33887439385
588.9727351025826
1.195473491985174
1000.48734692995
1001.338192233413
960.8771117341784
794.0589911074327
1001.33608567979
1001.335712625799
1001.333259296882
1001.325030008476
1001.332460124545
1001.332685471695
1001.331634241276
1001.327847348115
835.7208388684243
1001.330286266289
1001.32954040465
1001.327094712577
80.13383301419593
236.64736650284
647.0699965436096
1001.324389352342
1.219324246948978
1.239130616242984
5.338244326049762
446.8639401627552
1.19923278878922
1.217833784977743
1.239254380580119
1.238781097236054
1.18160404651499
1.199615809663469
1.223093118890403
1.240847461898755
1.16172425424914
1.179575581788163
1.202424262726354
1.232136910536811
1.131612544551561
1.146194159809907
1.186413396191089
1.449741668469021
1.086430098514268
1.093322771207322
1.107924262827435
1.178457095207667
1.040861513512017
1.041629469575337
1.042199330713764
1.041045382238513
1.007987909338087
1.006636313130414
1.004823448514254
1.00195816586427
0.9891872121560169
0.9880080743978413
0.9865018216496861
0.9846518473520659
0.9804689381305797
0.9798787846617235
0.9791658530635434
0.9783707434861406
0.9772011097586292
0.9769846623120514
0.9767369776130509
0.9764838450466317
0.9762026944389841
0.9761401070491451
0.9760725233872394
0.9760087128877646
0.9759501130387258
0.9759354085582311
0.9759204764447423
0.9759074459398137
0.9758964551087436
0.9758936844429874
0.9758910674333934
0.9758890007773762
0.9758868375834581
0.9758865017809302
0.9758862383998139
0.975886105989387
0.9758853855816793
0.9758854476226788
0.9758855358785613
0.9758856596088489
0.9758851530318058
0.9758852538137472
0.9758853630316472
0.9758854867272936
0.975885008294211
0.9758850983233267
0.9758851881827687
0.9758852840400375
0.9758848062137969
0.9758848817481599
0.975884952044591
0.9758850220593835
0.9758845387653595
0.9758846016650586
0.9758846565212449
0.9758847053976004
0.9758842160859333
0.9758842676182805
0.9758843097046973
0.9758843414997901
0.9758838465678286
0.975883888194055
0.9758839196709403
0.9758839376985714
0.9758834388180994
0.9758834711303402
0.9758834930293275
0.9758834998604314
0.9758829974705943
0.9758830215900481
0.975883035020196
0.9758830326722462
0.9758825264631897
0.9758825427253462
0.975882548340314
0.975882538476794
0.9758820257544323
0.97588203537546
0.9758820345113625
0.9758820186551285
0.9758814959747377
0.9758814994336411
0.9758814930210461
0.9758814725553994
0.9758809344810228
0.9758809335601764
0.9758809234388515
0.9758808998539961
0.9758803414133099
0.9758803370479879
0.9758803243243461
0.9758802988677516
0.9758797145246265
0.9758797090506476
0.9758796956341428
0.975879669593895
0.9758790560355239
0.9758790504980571
0.9758790371280847
0.9758790112490675
0.9758783664331013
0.9758783623502721
0.9758783501056238
0.9758783250205321
0.9758776497529621
0.9758776468335283
0.9758776354640051
0.9758776111906082
0.9758769104734114
0.975876907670803
0.9758768964864882
0.9758768724034199
0.9758761478180251
0.9758761424457172
0.9758761298623531
0.9758761054225755
0.9758753382879714
0.9758753256916618
0.9758753120134279
0.9758752923271309
0.9630951163401863
0.9792425848645434
0.9792697497060556
0.9773850275394207
0.9762180716121489
0.9759367092509381
0.9759023424709117
0.9759004518090297
0.9759011983902599
0.9759019489076419
0.9759025539581069
0.9759030389476957
0.9759034272585452
0.9759037432726606
0.9759039940604902
0.9759041910469363
0.9759043372683676
0.9759044217259392
0.9759043581195055
108.2235042399935
1.054269423667671
0.9882096571090125
0.9819050005239067
0.9774606505279272
0.976135312896306
0.9759246153634373
0.9759024907770133
0.9759012337747383
0.9759016946922107
0.9759021743169033
0.9759025665080635
0.975902886975111
0.9759031470094662
0.9759033529154181
0.9759035154833778
0.9759036361720789
0.9759037069266142
0.9759036299538186
580.7454676128067
12.86399894969279
1.047151470543019
0.9952055709033576
0.981661808473651
0.9770054718479502
0.9760579597856462
0.9759180743000335
0.9759026197065664
0.9759016619868923
0.9759019215870101
0.9759022054576031
0.9759024521035586
0.975902647126526
0.9759028053303164
0.9759029331227853
0.9759030290298838
0.9759030860626149
0.9759029926322671
969.2529061354975
187.805384289327
1.12240871810956
1.033378003286781
0.9941052074995668
0.9802394729714542
0.9766525281458773
0.9759979154934431
0.9759107429906327
0.9759022228446593
0.9759017582261251
0.975901906622596
0.9759020590725422
0.975902185473925
0.9759022933559578
0.9759023846376749
0.9759024559178118
0.9759024972684459
0.9759023931672908
1001.311427130116
402.767359276313
1.166414498579386
1.082477553986446
1.018360641554695
0.987840812611663
0.9783006609691383
0.9762552696372575
0.9759403907392056
0.9759047311987892
0.9759017595371289
0.9759016301465736
0.9759016780447598
0.9759017348167074
0.9759017915445571
0.9759018460782144
0.975901891753757
0.9759019182161076
0.9759018058918189
1001.310627696542
579.3781742619406
11.0687831037654
1.116366444826669
1.040289202428203