/*--------------------------------*- C++ -*----------------------------------*\
| =========                 |                                                 |
| \\      /  F ield         | OpenFOAM: The Open Source CFD Toolbox           |
|  \\    /   O peration     | Version:  2206                                  |
|   \\  /    A nd           | Website:  www.openfoam.com                      |
|    \\/     M anipulation  |                                                 |
\*---------------------------------------------------------------------------*/
FoamFile
{
    version     2.0;
    format      ascii;
    arch        "LSB;label=32;scalar=64";
    class       volScalarField;
    location    "0.2";
    object      T.air;
}
// * * * * * * * * * * * * * * * * * * * * * * * * * * * * * * * * * * * * * //

dimensions      [0 0 0 1 0 0 0];

internalField   nonuniform List<scalar> 
2268
(
272.999983099182
272.9999823736299
272.9999817255822
272.9999809238478
272.9999799518839
272.9999788266613
272.9999775543103
272.9999761389652
272.9999745954181
272.9999729584191
272.9999712906438
272.9999696986319
272.9999758888381
273.0000207355776
273.0001726146002
273.0005414836457
273.0012742135253
273.0025962118261
273.0048767788993
273.0087992457338
273.0158930870788
273.0303631150805
273.0686888277604
272.9999660830694
272.9999651635002
272.9999642532703
272.9999630681784
272.9999615979827
272.9999598603462
272.9999578590273
272.9999555989879
272.9999531000472
272.999950407969
272.9999476051691
272.9999448357096
272.99995527699
273.000030543191
273.0002787584444
273.0008560011016
273.0019310933709
273.0037160833747
273.0065140942162
273.0108558928591
273.0180418249004
273.0319987457186
273.0688786711249
272.9999483680803
272.9999472868462
272.9999461191219
272.9999445695945
272.9999426353867
272.9999403330722
272.9999376659837
272.9999346440412
272.9999312973065
272.9999276886008
272.9999239268122
272.9999202049891
272.9999389416514
273.00006460294
273.0004633052389
273.001352281627
273.002927137121
273.0053649961719
273.0088604769829
273.0137224739951
273.0209511122008
273.03412723321
273.0690663119496
272.9999298246534
272.9999286132319
272.9999272048714
272.9999253244153
272.9999229767508
272.9999201790301
272.9999169407302
272.9999132864257
272.9999092686245
272.9999049815315
272.9999005768331
272.9998963248818
272.9999296359593
273.00013376542
273.0007503235435
273.0020597224631
273.0042650203279
273.0074759040826
273.0117632750377
273.0171851930828
273.0244057925749
273.0366088981891
273.0691765354239
272.9999110969019
272.9999098037947
272.9999082211174
272.9999061177458
272.9999035086175
272.9999004212438
272.9998968920225
272.9998929913472
272.999888836925
272.9998846090762
272.9998805746788
272.9998772071493
272.99993700382
273.000266595051
273.0012034246027
273.0030799996312
273.0060607952109
273.0101352857962
273.0152557996213
273.0212236902864
273.0283590698404
273.0394141359181
273.0692046705242
272.9998938655064
272.9998925863958
272.9998909975502
272.9998889313863
272.9998864301032
272.9998835666465
272.999880472409
272.999877365858
272.9998745712161
272.9998725381207
272.999871908844
272.9998738275883
272.9999845934466
273.0005231432795
273.0019454690129
273.0046054038475
273.0085469719026
273.0135463925864
273.0194781667057
273.0259103041434
273.0328409257513
273.0425672893837
273.0691589918081
272.9998812756126
272.9998802608387
272.999879096531
272.9998777191186
272.9998762541375
272.9998749174181
272.9998741294444
272.999874541342
272.9998770697348
272.9998829322334
272.9998939036271
272.9999132402173
273.0001271458676
273.0010275349738
273.0032070641062
273.0069768563487
273.0121377374808
273.0180961551707
273.0247355840161
273.0314446455381
273.0379682864817
273.0461489944683
273.0690987227654
272.9998797423578
272.999879628522
272.9998799344308
272.9998808207819
272.9998826197663
272.9998859128114
272.9998918852588
272.9999022928895
272.9999195339539
272.9999467403555
272.9999886994519
273.0000545803067
273.0004814409388
273.0020237921593
273.0054050690208
273.010775631178
273.0175345118881
273.024448594395
273.0315859559659
273.0382240890162
273.0439907378472
273.0503255605522
273.0691027203061
347.5353243102396
347.5352756509201
347.5353161113062
347.5353914300741
347.535514637202
347.5356700967623
347.5358416693064
347.536015956765
347.5361823196471
347.5363330611718
347.5364642741771
347.5365745147561
347.5366680446111
347.5367442211887
347.5368027564919
347.5368442560429
347.5368692401328
347.5368867884698
347.5369289885229
347.535283446191
347.5352456822278
347.5352813262756
347.5353506269404
347.5354697904048
347.5356208203713
347.5357874080293
347.5359578565702
347.5361211483343
347.5362702193918
347.5363999151128
347.5365108356401
347.5366034923458
347.536679084858
347.5367369230965
347.5367773911228
347.5368013478982
347.5368205577917
347.5368794736981
347.5352639004951
347.5352383308811
347.5352683643702
347.5353288090622
347.5354467599639
347.5355938543104
347.535754409393
347.5359187565509
347.536076735841
347.5362214983618
347.5363478633172
347.53645704987
347.5365477897476
347.5366220903036
347.5366787486915
347.5367180160571
347.5367412027937
347.5367615972207
347.5368228706524
347.5352621905826
347.5352292908838
347.5352318548433
347.5352377116859
347.5354082757526
347.5355676123576
347.5357245309802
347.5358827653106
347.5360349497388
347.5361745398673
347.5362970949635
347.5364032689534
347.5364916829397
347.5365642331669
347.5366194419472
347.5366576224317
347.5366800622959
347.5367012386775
347.5367630179251
347.5351693316762
347.5351582147719
347.5349299701742
347.5344501368003
347.5352319706729
347.5355268139805
347.5356933528554
347.5358474782825
347.5359943380858
347.5361289154824
347.5362476937422
347.536350172728
347.5364360552753
347.536506404917
347.5365598233145
347.5365967616637
347.5366183869718
347.5366398514391
347.5367026582842
347.53570361212
347.5344266598356
347.5320623476709
347.5287902737722
347.5341928000099
347.5354028849316
347.5356550343353
347.5358118297829
347.5359532433093
347.536081641335
347.5361953425166
347.5362928879628
347.5363755555825
347.536443003901
347.5364943566038
347.5365296452015
347.5365500462723
347.5365715848804
347.5366373629204
347.5377792115544
347.5267477659356
347.5071144638984
347.499040346173
347.5287823988492
347.5348384589786
347.5355824182895
347.5357786262233
347.5359203695733
347.5360431705749
347.5361494901019
347.5362400213797
347.536316626025
347.5363790712234
347.5364272306878
347.5364601948223
347.536479150219
347.536501084414
347.5365618021398
347.3379056483034
347.4865170106856
347.3136899493908
347.3830512558593
347.5056866927108
347.5322590354757
347.5353289446335
347.5357210536731
347.5358845648764
347.5360122664727
347.5361184808427
347.5362079001696
347.5362818041092
347.536340515906
347.5363849048866
347.5364155452777
347.5364341603198
347.536454030857
347.53650767004
272.9999122445416
272.9999144568635
272.9999184772486
272.9999250426458
272.9999348870484
272.9999494001493
272.9999715663511
273.000005627827
273.0000572424033
273.0001337481727
273.0002470437002
273.0004209372456
273.0012806398691
273.0039608870601
273.009248302273
273.0169511367968
273.0259865516989
273.0346902224744
273.0430513917409
273.0507903054814
273.0568599992362
273.061197514687
273.0710149158451
273.0000556659829
273.0000673420504
273.0000864989399
273.0001159446011
273.000157720663
273.0002162191037
273.0003015397215
273.0004271398006
273.0006102972809
273.0008730659848
273.0012540158023
273.001833755365
273.0042254017765
273.0104259673388
273.0208842507894
273.0341549730053
273.0479489970905
273.0600748366853
273.0679147629664
273.0735384539036
273.0767266925138
273.0779097805986
273.0810421716495
273.0005221308265
273.0005586961485
273.0006177264368
273.0007067252727
273.0008297023186
273.0009982438527
273.0012408281154
273.0015920935517
273.0020943573672
273.0028004451023
273.0038107949261
273.0053417308439
273.0112151300136
273.0241528968088
273.042887860062
273.0636220863236
273.0826980084458
273.0981125946138
273.1069896635731
273.1093235520504
273.1072076510592
273.1025612897997
273.0986306955684
273.0017139667633
273.0018041984663
273.0019504381656
273.0021681956414
273.0024619970154
273.0028585088396
273.0034268278921
273.004240905991
273.0053852479406
273.0069625662124
273.0091867834636
273.0125261007483
273.0249798839409
273.0483955875579
273.0776266782521
273.1060698088347
273.1291650460667
273.149086610411
273.1561977465972
273.1516174239251
273.1376823679765
273.124037456262
273.115308117257
273.0043160188495
273.0045030220078
273.004811715353
273.0052664474691
273.00586397631
273.0066602653737
273.007802984052
273.0094247298975
273.011663444164
273.0146835358719
273.0188576703904
273.0250120599054
273.0475268549697
273.0832224882242
273.1218074860701
273.1553694753869
273.1784531751057
273.2183132315163
273.2324864611871
273.2005212633051
273.1676305830671
273.1334963443912
273.1224860317438
273.0093142740059
273.0096463101288
273.0102155280368
273.0110463093674
273.0121044286683
273.013501583629
273.0155200352531
273.0183599413786
273.022201476928
273.0272637744221
273.0340513249741
273.0437678583537
273.0780528587276
273.1225896891224
273.1645687293082
273.1990707085715
273.2548273364253
273.653786263047
282.9924348490612
286.4958990835148
284.8013772536586
280.5876913087563
273.4223412847493
273.0178917853121
273.0183990275304
273.0193289422963
273.0206784388279
273.0223341408693
273.0245143012964
273.0277019349758
273.0321487788673
273.0380347776484
273.0455941779724
273.0552286336002
273.0684834208733
273.1115162655412
273.1549232379036
273.1980476688586
273.3497409976172
282.811633840896
297.6805993766293
310.3305723252741
312.4769773566785
303.0940334033929
292.0492801222438
281.5796700594834
273.031161004866
273.031826590416
273.0331861001907
273.0351620108841
273.0374859572828
273.0405713728434
273.0451309639313
273.0514375266227
273.0596810069334
273.0698503138998
273.0817603658106
273.0975049562642
273.1403439853782
273.1844657310518
273.4505253690971
289.0528398291248
307.9122046796141
323.2736399107476
331.1372488397677
327.6888388749037
312.9309585431872
298.8429371574227
287.1876123669251
273.0497352048199
273.0504978443403
273.052309431069
273.0549774458472
273.0579876041723
273.062028796183
273.067892447046
273.0760761864536
273.0872865193823
273.0990850531253
273.1124781736887
273.136385697983
273.2262813073955
274.2776192140048
286.8047948511956
309.3950353637333
332.779391829066
339.3305888170128
337.2776221203077
330.7270003218974
317.0671178241852
302.4703195075075
291.1741174638488
273.0732331808807
273.074116707301
273.0765355443049
273.0801547712596
273.0838199786611
273.0884063689413
273.0946132806525
273.1051071883651
273.1223170268497
273.1382554415196
273.2179178253478
274.5636567714411
281.4925216973248
283.4372533838601
299.8284854718214
325.9018666000545
341.8632012104169
342.0142300143414
339.225855522933
332.6208442101165
321.4560533335588
307.5350795074914
295.9057022404689
273.1006111527381
273.1022790970596
273.1069432912479
273.1131225445596
273.1148801356871
273.1196515819615
273.1322537262013
273.1810491332369
274.201218859428
279.6940368476979
286.965072219203
294.5209462118636
294.5475881810785
286.9884737305532
303.193958993635
340.5611605496684
344.4290120849793
343.7843476599874
341.2664650800342
335.6105636596408
326.1519524179158
314.2016369104033
304.0159900005025
273.1791858903131
273.1948895301744
273.2408542674286
273.4263948512706
276.4102879879916
279.3873823554703
283.9827399860048
289.5120914058905
296.1554716201965
302.8264918808294
307.8684378732978
311.0408575666213
303.8748053827525
287.8909393540356
307.7696124394757
344.5374250357764
345.7182513503468
345.192814673691
343.3924468590109
339.2979334877224
332.2349873643575
322.9441137502793
315.160588383883
289.847869510734
290.6520656820069
292.1904429884333
294.3628450804642
297.9446448166401
302.4091021971831
307.4545606687979
312.9911024887212
318.2283337282813
322.2959206692231
323.8862261771004
322.846182460283
309.150065831779
289.2863030963645
311.5322430022103
346.1653054799424
346.505446524893
346.216312235174
345.1887300403044
342.7571905092344
338.3102502622903
332.2155880181716
327.0933961292098
311.4287011447654
312.7358271765171
314.2994106408803
316.099905022049
319.3133741831039
323.2589672479468
327.3769170392214
331.2234511250159
334.1006818625444
335.2669639680311
333.8998303235438
329.7541070216211
311.0078802446475
291.1639636928184
322.1706827113011
347.0077602337925
346.959139870364
346.8586392675584
346.3800559008017
345.1727330951002
342.866269437947
339.5703549044277
336.7397398074283
329.6751495785655
330.5608653479177
331.5819359105239
333.0369263766918
335.2544740217031
337.8189292487021
340.2210945465939
341.9959685571072
342.5731536388245
341.2688295167931
337.6559962741722
331.5612868486353
310.5761394386088
302.1931063932976
340.7857429783024
347.2173072630729
347.2171435920795
347.2053740231252
347.0176038403602
346.5163099886354
345.5326293294092
344.0791841702995
342.8118420326095
341.1381000449652
341.6241592370919
342.2304631943277
342.985400612733
344.1269745041722
345.3001959951832
346.1315892715486
346.2311116773677
345.0334735362507
341.9036214064882
336.7193319937954
329.3524438902894
311.4571881527173
317.4552603081852
342.552147754969
347.6748811614641
347.3482787493178
347.3854673080539
347.3243441473879
347.1475501996273
346.7963646220498
346.2722384517277
345.8223506138931
346.5209201790078
346.7391562397208
346.9463027736546
347.1613919459223
347.470001971654
347.6839562099909
347.5499307431643
346.6979423117789
344.4506222708372
340.1821262404264
334.2518911773593
326.7992143909118
318.3684858483305
330.2962945578763
344.6248464081759
347.9543293564592
347.4079795058877
347.4724959763137
347.4556737371278
347.4025938778182
347.2965291254268
347.1402122709335
347.0137314410309
348.0565165925867
348.0652391585916
348.0599142243201
348.0415921878472
347.9564897029286
347.7809394361507
347.3180200233213
346.1029635866861
343.4179134329323
339.0797619240902
334.1468359293502
330.3246585429199
331.6374638276184
339.305934532339
346.1136751553988
348.0256517657924
347.4330249135415
347.5118545322774
347.5062106878809
347.4928259893412
347.4656329930242
347.4266875877631
347.3984729087103
347.9100404828683
347.8643897992814
347.8211372642801
347.7549749895434
347.6550308823922
347.47603117016
347.0423325265844
345.9319204769748
343.6598648626475
340.5048479784331
337.8993224298243
337.3537838562732
339.6676425121241
343.5510105741324
346.9878103347275
347.9727391719263
347.4438708503419
347.5285425492727
347.5236312730064
347.5209682685682
347.5151324027974
347.5070527531441
347.5022041944659
347.5361187666748
347.5218055643059
347.5097954426806
347.4931361564343
347.4678146206566
347.394875227506
347.1458061851206
346.4604589910913
345.0930172060648
343.2247721246127
341.8271307861994
341.8426775837601
343.3819333350431
345.662909471025
347.4771562030083
347.8632034157975
347.4502609174435
347.5357976731522
347.5288887083067
347.5287029219409
347.5277548814806
347.5264486446534
347.5259650162856
347.4576278805384
347.4640161341625
347.4704195018087
347.4802206404761
347.4895793296645
347.4811357333348
347.4001234523616
347.1382956230426
346.5648581846537
345.6819329854091
344.8408105724856
344.6772276797525
345.4918686891874
346.800931955493
347.7098220223289
347.745036208934
347.4537800385768
347.5412354051559
347.5297831059355
347.530630005079
347.5305700187117
347.5305038382174
347.5306335547722
347.5289582815482
347.5316844099074
347.5339565699251
347.5372262040472
347.540756822256
347.5421022135868
347.5349869914047
347.4982101352289
347.3892838155691
347.1700586597093
346.8839115411479
346.7199465414263
346.9005019068435
347.3756503271971
347.7313480774191
347.6480556497863
347.4612955267368
347.5458394681293
347.5291133339222
347.5311839924432
347.5311239212272
347.5312444021113
347.5314141303528
347.5460209805959
347.5443575268913
347.5428638046901
347.5404205446796
347.5376008584474
347.5357555792311
347.5360810825941
347.5386187650507
347.5392036127531
347.5289504014273
347.5036810925214
347.4822105318923
347.5069971319962
347.5895209558425
347.6461342020884
347.5765595430906
347.4823340452533
347.5455774021759
347.5286720506031
347.5314062045466
347.5312271724526
347.5313647238864
347.5315084953742
347.5236073675159
347.5239994303377
347.5243754223658
347.5249031357305
347.5254736094213
347.5262251691368
347.5279710369176
347.5318751043571
347.5388046217533
347.5485583112037
347.5596832343204
347.5704781294205
347.5799129470352
347.5846445855916
347.5733468841098
347.5375402130953
347.5079943281188
347.5404232319759
347.5292433059561
347.531430472751
347.5312580351766
347.5313775978865
347.5314905154884
347.5315155062423
347.5315443826748
347.5315789909989
347.5315919485209
347.5316258598906
347.5316631221059
347.5315821020837
347.5314498499831
347.5318368057569
347.5336300762558
347.537273486398
347.542081094705
347.5460485295415
347.5461317528395
347.5396965479942
347.5286853384244
347.5240229503765
347.5350401781336
347.5302314733614
347.5313445813864
347.5312736381716
347.5313628321699
347.5314460840943
347.5299025242231
347.5299485347417
347.5300119125386
347.5300490968276
347.5300391478541
347.5300009835211
347.5299980945794
347.530078037026
347.5302297903959
347.5304508884815
347.5308351906252
347.5314705678765
347.5321766995436
347.5323873729022
347.5315168697744
347.5299603815811
347.5297441468304
347.5321985836462
347.5308786926898
347.5312607229698
347.5312690302609
347.5313297201288
347.5313859165291
347.5300270107637
347.5300715329784
347.5301326017961
347.5301852787695
347.5302225301243
347.5302477742247
347.5302704878279
347.5303028999612
347.5303570138887
347.5304380582148
347.5305417799954
347.5306624952901
347.5307904879216
347.5308885373884
347.5308982969783
347.5308394219014
347.5309226108748
347.5312986622969
347.5310950760803
347.5312046874176
347.5312381404939
347.5312774287875
347.5313105494404
347.529959132088
347.5299962798518
347.5300512323948
347.5301021626948
347.530139415472
347.5301629511612
347.5301836615658
347.5302172946008
347.5302754344418
347.5303602416922
347.5304652827472
347.5305797121657
347.5306925022263
347.5307944217659
347.530878470825
347.5309447450426
347.5310095070246
347.5310865307789
347.5311017253904
347.531149484619
347.5311819384743
347.5312059076876
347.5312208820996
347.5298958957636
347.5299254852629
347.5299723168263
347.5300201820999
347.5300609486303
347.5300918155231
347.5301179474239
347.5301501061155
347.5301990614759
347.5302705246523
347.5303632068776
347.5304702042379
347.5305821126052
347.5306899187976
347.530786759707
347.5308688682378
347.5309361681123
347.5309912681471
347.531034695535
347.5310728089626
347.531100188011
347.5311141617271
347.531116858228
347.5298300521212
347.5298518855406
347.5298894428246
347.5299311615047
347.529970646478
347.5300039289853
347.5300328352681
347.5300645768213
347.5301081149978
347.5301699365271
347.5302515056809
347.5303491894625
347.5304559801739
347.5305637494085
347.5306650578258
347.5307542292177
347.5308279096835
347.5308861026365
347.5309336589909
347.5309708012331
347.5309954482016
347.5310042655626
347.5310001682024
347.5297604784575
347.5297750686797
347.5298033653646
347.5298375481691
347.5298730483779
347.5299056729504
347.5299350784738
347.5299655746424
347.5300041338734
347.5300571583002
347.5301278649396
347.5302152379866
347.5303145886685
347.5304190297088
347.5305210749423
347.5306139461771
347.5306926348239
347.5307555584954
347.5308062232563
347.5308444954861
347.5308691874826
347.530877199318
347.5308715870315
347.5296874408999
347.5296958322957
347.5297158384449
347.5297424009422
347.5297725326196
347.5298023193335
347.5298301704845
347.5298582547168
347.5298916620199
347.529936162378
347.5299958820432
347.5300717957133
347.530161460105
347.5302597015865
347.5303597780857
347.5304545802754
347.5305379953717
347.5306066892767
347.5306612384952
347.5307020583983
347.530728643348
347.5307384812176
347.5307345711325
347.5296108967281
347.5296144699529
347.5296278453783
347.5296478085584
347.5296725309096
347.5296985683576
347.5297237079873
347.529748644767
347.5297768972249
347.5298134043085
347.5298626317227
347.5299269566836
347.5300058176235
347.5300957843133
347.530191294725
347.5302857600609
347.5303726952483
347.5304466530633
347.5305043395576
347.5305485978344
347.5305778606036
347.5305909404855
347.5305909011374
347.5295307863378
347.5295310870221
347.5295398645109
347.5295549782969
347.5295752981472
347.52959782863
347.5296200943157
347.5296418257131
347.5296653165511
347.529694683941
347.5297344431294
347.5297879751536
347.5298563433653
347.5299377470783
347.5300277306455
347.5301200505081
347.5302078279632
347.5302846651784
347.5303461914024
347.5303933521236
347.5304251404108
347.5304412104067
347.5304448811121
347.5294470919912
347.5294456509899
347.5294519295257
347.5294642421162
347.529481754856
347.5295017806991
347.5295217692801
347.5295408275172
347.5295603397287
347.5295836606132
347.5296151554992
347.529658856512
347.5297170907218
347.5297894970063
347.529872766794
347.5299612143285
347.5300478832186
347.5301258262326
347.5301898211801
347.5302389958466
347.5302725771624
347.5302909506708
347.5302977691371
347.5293598297521
347.5293580635484
347.5293637462536
347.5293752414439
347.5293916859568
347.5294105486063
347.5294292567511
347.5294465175432
347.5294630262189
347.5294814901117
347.5295060449222
347.5295411131194
347.5295899787671
347.5296535255966
347.5297295822949
347.5298131669539
347.5298974475011
347.5299751544964
347.5300403505248
347.5300907265204
347.5301252669964
347.5301446533694
347.530152772272
347.529269228056
347.5292683046216
347.529274887358
347.5292871381704
347.5293039688423
347.529322873118
347.5293412632561
347.5293575772191
347.5293720024865
347.5293867222821
347.529405620303
347.5294333328928
347.5294738414459
347.5295290290474
347.5295977268426
347.5296756124571
347.5297560840838
347.5298318440126
347.5298966569067
347.5299468559922
347.5299814545793
347.530000969267
347.5300092204073
347.5291755799704
347.5291764178866
347.529184888333
347.5291989076814
347.5292170526733
347.5292367734233
347.5292554626811
347.529271370926
347.5292843217213
347.5292961077032
347.5293103984184
347.5293319327357
347.529365194221
347.5294128537645
347.5294745460127
347.5295465377271
347.5296225362436
347.5296953574764
347.5297585873381
347.5298077060681
347.5298416100813
347.5298604140102
347.5298676270879
347.5290796445667
347.5290827214625
347.5290934141611
347.529109416738
347.5291290416607
347.5291496549937
347.5291686412954
347.5291841411815
347.5291957478714
347.5292050096082
347.5292154387293
347.5292318576857
347.529259100839
347.5293003684741
347.5293558472171
347.529422171914
347.5294932332256
347.5295619208787
347.5296219146939
347.5296687308019
347.5297012229628
347.5297191163075
347.5297254888383
347.5289822802614
347.5289875545558
347.5290000223573
347.5290174020879
347.5290377894763
347.5290585701886
347.5290771530676
347.5290916440612
347.5291015512764
347.529108310534
347.5291154041907
347.5291277602811
347.5291504497541
347.5291869656631
347.529237671348
347.5292992543335
347.5293655281894
347.5294293761069
347.5294847545336
347.5295277877624
347.5295575379399
347.5295741662902
347.5295805033776
347.528884219956
347.5288908464596
347.5289035323305
347.5289203450215
347.5289394958694
347.5289585811924
347.5289752611505
347.5289878232484
347.5289958558569
347.5290007865324
347.5290060311635
347.5290164068788
347.5290368144815
347.5290705021879
347.5291175479118
347.5291743807072
347.5292347227557
347.5292917055301
347.5293400523543
347.5293771865846
347.5294034726434
347.5294203077265
347.5294304347632
347.5287839883375
347.5287904061128
347.5287995947497
347.5288113429822
347.5288244046352
347.528837420698
347.5288491908025
347.5288590242542
347.528867130276
347.528874859583
347.5288845885484
347.5288991733805
347.5289210477773
347.5289512437374
347.5289888220354
347.5290310625806
347.5290744563616
347.5291160602283
347.5291543975138
347.529189281316
347.5292214263904
347.5292511824837
347.5292783710494
273.076145229132
273.0865462682521
273.13765453959
283.6517920976216
273.0836672812699
273.0893190498551
273.1101721406646
273.2312296025215
273.097881463561
273.099397779445
273.1093694638402
273.1428162688318
273.1126177121432
273.1117017885027
273.1159744764451
273.1313658534396
273.1212278091002
273.1214532290941
273.1244846950168
273.1344247896372
273.1591478803853
273.1374852709552
273.1378262840793
273.1454200126029
278.13734937563
273.6916371612387
273.1665134437342
273.1644680839692
282.7969790320558
278.4771713184317
273.6641467990698
273.2018376679902
287.0165332222104
282.7067513449134
277.2799807222442
273.3140768139303
291.9286007704216
287.5103723119934
282.0470649808199
275.2465784130258
299.6971080457079
295.8835629904569
290.7769072634441
284.3794547802597
312.1628373603649
310.1944338248818
307.6746410914451
304.6537734943076
325.8316405284271
325.5915391778079
325.4138746423316
325.7754754239482
336.4599266123506
336.9120169797259
337.5203452298234
338.4862728503778
342.8560855542586
343.2656218611102
343.7902073190845
344.4367123523631
345.9056320187585
346.1142866520644
346.3666838364551
346.6486463120298
347.0629534077542
347.1401256950243
347.2284793794614
347.3188680515827
347.4182953380784
347.4408102038865
347.4651352655092
347.488156759158
347.508445204249
347.5138827838682
347.5194219239435
347.5243104066248
347.5276821021019
347.5288379822327
347.5299542484239
347.5308944971202
347.5311560662209
347.5314173934431
347.5316646545081
347.5318810096088
347.5316582671207
347.5317548399589
347.5318515420042
347.5319484135647
347.5316738020615
347.5317373145375
347.5318057024764
347.5318796072605
347.5316139095152
347.5316652553738
347.5317233700119
347.5317884016325
347.5315364859977
347.5315797747334
347.5316307262497
347.5316895480192
347.5314492854653
347.5314861922686
347.5315310210035
347.5315846997074
347.5313527062486
347.5313847295185
347.5314245539638
347.5314738856688
347.5312471202173
347.5312753530285
347.5313111077612
347.5313567494754
347.5311323156447
347.5311578749337
347.5311905932501
347.5312331385989
347.5310090799349
347.5310326558228
347.5310630936845
347.5311030663107
347.5308780991457
347.5309004647355
347.5309293352499
347.5309671669518
347.530741177173
347.5307626310715
347.5307902370857
347.5308262321519
347.5305996207512
347.5306205928705
347.5306472452033
347.5306816127905
347.530455677177
347.5304760266374
347.5305016017108
347.5305343952033
347.5303104017317
347.5303302043558
347.5303547508346
347.53038601498
347.5301655221987
347.5301842879366
347.5302074979037
347.5302371868665
347.5300210194945
347.5300386649732
347.5300605910784
347.5300887916826
347.5298773530413
347.529893585084
347.5299141151406
347.529940906188
347.5297335940812
347.5297487321324
347.5297681932347
347.5297938351433
347.5295885499441
347.5296031579073
347.5296220064224
347.5296469567521
347.5294427635453
347.5294579726518
347.5294769677895
347.5295016388864
347.5293048925869
347.5293225325787
347.529341752894
347.5293645087228
352.1441005117647
346.3402771642553
346.3339110974662
347.0038232681698
347.4200577399632
347.5212714122292
347.5343132864569
347.535616706902
347.5358506178411
347.5359817440769
347.5360855814205
347.5361698393679
347.5362383406045
347.5362912068256
347.5363321755165
347.5363616762597
347.5363818587243
347.5363988600712
347.5364448024563
273.4139734235433
321.6920988118663
343.2009277702077
345.4066248655798
346.9785071177436
347.4506165277538
347.5263817677989
347.5348367757157
347.5357285723878
347.5359108014269
347.5360139900871
347.5360931864842
347.5361547762794
347.5362027653223
347.5362402964558
347.5362673765774
347.536286156521
347.5363012953738
347.5363487174812
273.2310308272662
275.5638920502234
323.8849965491681
340.7912850873173
345.4939287395329
347.141366507716
347.4790157492164
347.5293149198466
347.5351858259838
347.5358068867793
347.5359325758496
347.5360044824997
347.5360558321762
347.5360980756801
347.536130222143
347.5361529166214
347.5361686022154
347.5361810011005
347.5362305910465
273.2063803442958
273.4298507881251
302.1700283684557
328.2032369719826
341.1697743555773
345.9963873156789
347.26767318419
347.5009779162303
347.5322922622201
347.5355268379525
347.53584526689
347.5359139068033
347.5359576789725
347.5359922839171
347.536017849654
347.5360353505228
347.5360469576926
347.5360567555889
347.5361061932458
273.1980978482185
273.2864911127559
290.7684711243031
313.3229058193981
333.0711836896138
343.3394205846477
346.6828974013226
347.4095125986939
347.5217654676159
347.5345733443826
347.5357130749013
347.5358247014919
347.5358622768519
347.5358881737765
347.5359065927163
347.5359184859408
347.5359260849871
347.5359328524174
347.5359812031299
273.2013465075611
273.2638990203792
274.6341905001024
303.808913634486
326.1001658895408
340.1334605947827
345.7774207979398
347.2411817314087
347.499845204919
347.5324373837675
347.5354921073861
347.5357324304427
347.5357659291564
347.5357827430114
347.5357938525727
347.5358001868913
347.5358035830985
347.5358077980501
347.5358536340706
273.2133803558485
273.2770917962307
273.5506918608515
298.4208394883306
322.0812149096269
338.1099243622601
345.1271826750767
347.108126667582
347.4815951347529
347.5306370229207
347.5352993373097
347.5356391440034
347.5356665882651
347.53567452652
347.5356787155352
347.5356797939618
347.5356795308316
347.5356811026458
347.5357242537436
273.2388760053151
273.2902004165986
273.4295477071922
296.281513954129
321.8366369136277
338.4008900937628
345.3035167517767
347.1575387341822
347.4897523672843
347.5314681464686
347.5352866956732
347.5355474394918
347.535560440333
347.5355602684983
347.535558432081
347.5355550147974
347.5355514252233
347.5355510134963
347.5355907501131
273.2751094033314
273.3182059840599
273.4727948816845
300.3285931499616