/*--------------------------------*- C++ -*----------------------------------*\
| =========                 |                                                 |
| \\      /  F ield         | OpenFOAM: The Open Source CFD Toolbox           |
|  \\    /   O peration     | Version:  2206                                  |
|   \\  /    A nd           | Website:  www.openfoam.com                      |
|    \\/     M anipulation  |                                                 |
\*---------------------------------------------------------------------------*/
FoamFile
{
    version     2.0;
    format      ascii;
    arch        "LSB;label=32;scalar=64";
    class       volScalarField;
    location    "0.2";
    object      T.water;
}
// * * * * * * * * * * * * * * * * * * * * * * * * * * * * * * * * * * * * * //

dimensions      [0 0 0 1 0 0 0];

internalField   nonuniform List<scalar> 
2268
(
272.9999830991845
272.999982373632
272.9999817255841
272.9999809238493
272.9999799518858
272.999978826663
272.9999775543121
272.9999761389667
272.9999745954195
272.9999729584198
272.9999712906451
272.999969698633
272.9999758888443
273.0000207356173
273.0001726147422
273.0005414840138
273.001274214294
273.0025962132231
273.004876781224
273.0087992493903
273.0158930926399
273.0303631233389
273.0686888391423
272.9999660830738
272.9999651635043
272.9999642532748
272.9999630681829
272.9999615979867
272.9999598603508
272.9999578590312
272.9999555989918
272.9999531000512
272.9999504079726
272.9999476051726
272.9999448357128
272.9999552770024
273.0000305432571
273.0002787586708
273.0008560016668
273.0019310945019
273.0037160853107
273.0065140972209
273.0108558972297
273.0180418310507
273.0319987542921
273.0688786825229
272.9999483680867
272.9999472868531
272.9999461191279
272.9999445696006
272.9999426353929
272.9999403330788
272.9999376659902
272.9999346440472
272.9999312973126
272.9999276886068
272.9999239268176
272.9999202049945
272.999938941672
273.0000646030454
273.0004633055906
273.0013522824803
273.0029271387735
273.0053649988809
273.0088604809584
273.0137224793911
273.0209511192252
273.0341272422995
273.0690663234579
272.9999298246624
272.9999286132407
272.99992720488
272.9999253244234
272.9999229767593
272.999920179039
272.9999169407387
272.9999132864338
272.9999092686322
272.999904981539
272.9999005768399
272.9998963248881
272.9999296359894
273.0001337655782
273.0007503240632
273.0020597236906
273.0042650226342
273.0074759077308
273.0117632801723
273.0171851996997
273.024405800656
273.0366089079421
273.0691765471237
272.9999110969125
272.9999098038049
272.9999082211274
272.9999061177558
272.9999035086273
272.9999004212535
272.9998968920318
272.9998929913567
272.9998888369336
272.9998846090834
272.9998805746848
272.9998772071523
272.9999370038587
273.0002665952784
273.0012034253417
273.0030800013296
273.006060798306
273.0101352905337
273.0152558060692
273.0212236982755
273.0283590791246
273.0394141464641
273.0692046824918
272.9998938655167
272.9998925864065
272.9998909975604
272.9998889313961
272.9998864301126
272.9998835666549
272.9998804724164
272.9998773658635
272.9998745712198
272.9998725381212
272.9998719088401
272.9998738275779
272.9999845934844
273.000523143586
273.0019454700235
273.0046054061206
273.0085469759214
273.0135463985453
273.0194781745839
273.0259103136152
273.032840936354
273.042567300839
273.0691590041683
272.9998812756197
272.9998802608455
272.9998790965374
272.9998777191238
272.999876254141
272.9998749174187
272.9998741294425
272.9998745413347
272.9998770697214
272.99988293221
272.9998939035908
272.9999132401632
273.0001271458728
273.0010275353462
273.0032070654197
273.0069768592782
273.0121377425388
273.018096162456
273.0247355933966
273.0314446565474
273.0379682984732
273.0461490069314
273.069098735665
272.999879742353
272.9998796285158
272.9998799344226
272.9998808207708
272.999882619751
272.9998859127905
272.9998918852291
272.9999022928476
272.9999195338945
272.999946740271
272.9999886993335
273.000054580141
273.0004814408304
273.0020237925247
273.0054050705972
273.0107756347631
273.0175345180103
273.0244486030558
273.0315859668612
273.0382241015375
273.0439907512222
273.0503255740784
273.0691027337801
347.5353246793112
347.5352760188861
347.5353164770376
347.5353917925748
347.5355149957846
347.5356704511024
347.5358420193967
347.5360163028138
347.5361826619875
347.5363334001954
347.5364646102902
347.5365748483754
347.5366683760989
347.5367445509065
347.5368030847765
347.5368445832078
347.5368695664753
347.5368871142721
347.5369293140593
347.5352838154832
347.5352460504296
347.5352816922239
347.5353509896049
347.535470149083
347.5356211747488
347.5357877581158
347.5359582025896
347.536121490632
347.5362705583663
347.5364002511768
347.5365111692064
347.5366038237865
347.5366794145329
347.5367372513419
347.5367777182516
347.5368016742061
347.5368208835607
347.5368797992035
347.5352642702438
347.5352386995728
347.5352687307663
347.5353291720651
347.5354471188374
347.5355942087603
347.535754759468
347.5359191025094
347.5360770780511
347.5362218372368
347.5363481992842
347.5364573833365
347.536548121098
347.5366224198966
347.536679076861
347.5367183431161
347.5367415290366
347.5367619229283
347.536823196097
347.5352625609994
347.5352296603263
347.5352322219516
347.5352380753136
347.5354086349486
347.5355679669128
347.5357248810314
347.5358831111707
347.5360352918133
347.5361748785921
347.5362974307805
347.5364036022751
347.5364920141561
347.5365645626372
347.5366197700046
347.5366579493876
347.536680388442
347.5367015642926
347.5367633432795
347.5351697029985
347.5351585852654
347.5349303385159
347.5344505023822
347.5352323305754
347.5355271686879
347.5356937028641
347.5358478240033
347.5359946799754
347.536129254004
347.5362480293578
347.5363505058571
347.536436386314
347.5365067342245
347.5365601512237
347.5365970884823
347.5366187129894
347.536640176932
347.5367029835191
347.535703985502
347.5344270318248
347.5320627192954
347.5287902737754
347.5341931625882
347.5354032399831
347.5356553842827
347.5358121753132
347.5359535849549
347.5360819795973
347.5361956778733
347.5362932208518
347.5363758863988
347.5364433330059
347.5364946843276
347.5365299718495
347.5365503721304
347.5365719102208
347.536637688006
347.537779534969
347.526747765938
347.5071144639013
347.4990403461762
347.5287827736831
347.5348388154148
347.5355827682148
347.5357789715177
347.5359207109173
347.5360435085194
347.5361498251452
347.5362403539779
347.5363169565755
347.5363794000858
347.5364275581893
347.5364605212646
347.536479475886
347.5365014095715
347.5365621270457
347.3379056483158
347.4865173786255
347.3136899493946
347.3830512558636
347.5056866927138
347.5322593981674
347.5353292948765
347.5357213986936
347.535884905863
347.5360126040508
347.5361188155364
347.5362082324393
347.5362821343568
347.5363408444919
347.5363852321359
347.5364158714885
347.5364344857691
347.5364543558071
347.536507994743
272.999912244507
272.9999144568256
272.999918477206
272.9999250425961
272.9999348869889
272.9999494000749
272.9999715662565
273.0000056277042
273.00005724224
273.0001337479534
273.0002470434028
273.0004209368403
273.0012806394859
273.0039608872472
273.009248303943
273.0169511408566
273.0259865586839
273.034690232482
273.043051404083
273.050790319598
273.0568600144063
273.0611975300601
273.0710149307772
273.0000556658227
273.0000673418803
273.0000864987545
273.0001159443928
273.0001577204226
273.00021621882
273.0003015393773
273.0004271393713
273.000610296731
273.0008730652676
273.0012540148552
273.0018337540984
273.0042254003914
273.01042596669
273.0208842520909
273.0341549772551
273.0479490047956
273.0600748477529
273.0679147767066
273.0735384692832
273.0767267086557
273.0779097968042
273.0810421875245
273.0005221303311
273.0005586956277
273.0006177258754
273.000706724652
273.0008297016187
273.0009982430457
273.0012408271588
273.0015920923836
273.0020943559048
273.0028004432377
273.0038107925116
273.0053417276709
273.0112151265448
273.0241528944183
273.0428878600486
273.06362208931
273.0826980148024
273.0981126040721
273.1069896766917
273.1093235662925
273.1072076651794
273.1025613035248
273.098630709361
273.001713965515
273.0018041971634
273.0019504367754
273.0021681941232
273.0024619953288
273.0028585069297
273.0034268256694
273.004240903331
273.0053852446765
273.0069625621315
273.0091867782871
273.0125260940994
273.0249798774564
273.0483955836053
273.0776266774667
273.1060698104287
273.1291650500966
273.1490866143749
273.1561977542726
273.1516174294406
273.1376823673347
273.1240374574094
273.1153081238576
273.0043160161406
273.0045030192015
273.004811712383
273.005266444262
273.0058639727982
273.0066602614603
273.0078029795752
273.0094247246342
273.0116634378315
273.0146835281097
273.0188576607897
273.0250120479756
273.0475268461819
273.083222486065
273.1218074889059
273.1553694806728
273.1784531856911
273.2183132534113
273.2324864864151
273.2005211948376
273.1676305593598
273.1334963513714
273.1224860377682
273.0093142688103
273.0096463047878
273.010215522429
273.0110463033728
273.0121044221935
273.0135015765206
273.0155200272529
273.0183599321361
273.0222014660188
273.0272637613243
273.0340513093159
273.0437678398021
273.078052851382
273.1225896945479
273.1645687416639
273.1990707254467
273.2548273330472
273.6537862630431
282.9924348478465
286.4958990818509
284.8013772530452
280.5876913086357
273.4223412847352
273.0178917763796
273.0183990184196
273.019328932808
273.0206784287813
273.0223341301501
273.024514289679
273.0277019221099
273.0321487642708
273.0380347606778
273.045594158093
273.0552286109357
273.0684833956176
273.1115162644606
273.1549232524357
273.1980476838526
273.3497408919004
282.8116338389118
297.6805993765961
310.3305723251112
312.4769773566765
303.0940334032612
292.0492801217721
281.5796700589166
273.0311609910429
273.0318265764104
273.0331860857101
273.035161995663
273.0374859411814
273.0405713555728
273.0451309452242
273.0514375058085
273.0596809825113
273.0698502869187
273.0817603358244
273.0975049254653
273.1403439880115
273.1844657216582
273.4505253690875
289.0528398278062
307.9122046795505
323.2736399107822
331.1372488397958
327.6888388749869
312.9309585429074
298.8429371565349
287.1876123660515
273.049735185671
273.0504978249346
273.0523094109541
273.0549774245919
273.0579875818332
273.0620287728496
273.0678924230357
273.0760761595074
273.087286484926
273.0990850249814
273.1124781270992
273.1363856144111
273.2262813073916
274.2776192130036
286.8047948500429
309.3950353637263
332.7793918294032
339.3305888170127
337.2776221203181
330.7270003219088
317.0671178241659
302.4703195073618
291.1741174636859
273.0732331567604
273.0741166822015
273.0765355166472
273.0801547404453
273.0838199501534
273.0884063440017
273.0946132565483
273.1051071508192
273.1223169795869
273.1382554171018
273.2179178253409
274.5636567703635
281.4925216895419
283.4372533783628
299.8284854715534
325.9018666003618
341.863201210469
342.0142300143402
339.2258555229407
332.6208442101575
321.4560533335923
307.5350795074112
295.9057022403218
273.1006111163106
273.1022790549704
273.1069432318841
273.1131224758638
273.114880122461
273.1196515645212
273.1322536560506
273.1810491332338
274.2012188579651
279.694036819272
286.9650722047078
294.5209462039674
294.5475881767106
286.9884737304158
303.1939589925214
340.561160549795
344.4290119801717
343.7843476599992
341.2664650801185
335.6105636599277
326.1519524182862
314.20163691033
304.0159899999772
273.1791858903096
273.1948895301692
273.2408542674172
273.4263948511827
276.4102879706324
279.3873823424913
283.982739972111
289.5120913921868
296.1554716093654
302.8264918743836
307.8684378700865
311.0408575651743
303.8748053811426
287.8909393538605
307.7696124383353
344.5374250357788
345.7182517081999
345.1928146737133
343.392446859132
339.2979334881473
332.2349873651194
322.9441137508051
315.1605883838496
289.8478695009924
290.6520656719571
292.1904429785053
294.3628450709658
297.9446448083121
302.4091021907266
307.4545606643703
312.9911024865058
318.2283337278386
322.2959206696548
323.8862261775946
322.8461824605312
309.1500658311447
289.2863030961016
311.5322430021729
346.165305479948
346.5054465248963
346.2163122351914
345.1887300403851
342.7571905095257
338.3102502629469
332.2155880190021
327.0933961297577
311.4287011425896
312.7358271747053
314.2994106395001
316.0999050211126
319.3133741829644
323.2589672486068
327.3769170404673
331.2234511264691
334.1006818637922
335.2669639688295
333.8998303239663
329.7541070218432
311.0078802443124
291.1639636923786
322.170682772348
347.007760233801
346.9591398703678
346.8586392675672
346.3800559008331
345.1727330952125
342.8662694382586
339.5703549049528
336.7397398079254
329.6751495796536
330.5608653490618
331.5819359117223
333.0369263779397
335.2544740229417
337.8189292498275
340.2210945474912
341.9959685576915
342.5731536390993
341.2688295168701
337.6559962741864
331.5612868486476
310.5761394384135
302.1931063895224
340.7857429784445
347.2173071404011
347.217143592082
347.2053740231306
347.0176038403727
346.516309988672
345.5326293295079
344.0791841704891
342.8118420328285
341.1381000455277
341.6241592376386
342.2304631948331
342.9854006131752
344.1269745045053
345.3001959953904
346.1315892716443
346.2311116773889
345.0334735282927
341.9036214065183
336.7193319938384
329.352443890299
311.4571881525595
317.4552603078893
342.552147755137
347.6748812418605
347.3482787493206
347.3854673080572
347.3243441473938
347.1475501996393
346.7963646220754
346.2722384517767
345.8223506139546
346.5209201790678
346.7391562397709
346.9463027736927
347.161391945948
347.4700019716628
347.683956209991
347.5499309373825
346.6979423117957
344.4506222708871
340.1821262405063
334.251891177393
326.7992143909101
318.3684858482593
330.2962945585259
344.6248464082757
347.9543293564623
347.4079798792923
347.4724963424679
347.4556737371317
347.4025938778225
347.2965291254346
347.1402122709458
347.0137314410455
348.0565166685992
348.065239366553
348.0599145767936
348.0415921878518
347.9564897029347
347.7809394361601
347.3180200233361
346.1029635867112
343.4179134329698
339.0797619241025
334.146835929358
330.3246585430669
331.6374638281467
339.3059345327443
346.1136751554313
348.0256517657978
347.4330252675355
347.5118548531278
347.5062110458313
347.4928259893442
347.4656329930279
347.4266875877672
347.3984729087151
347.9100404828775
347.8643897992902
347.821137264289
347.7549749895518
347.6550308823993
347.4760311701671
347.0423325265915
345.9319204769839
343.6598648626527
340.5048479784354
337.8993224298944
337.3537838564899
339.6676425123763
343.551010574252
346.9878103347334
347.9727391719335
347.4438711765789
347.5285428532867
347.5236315950808
347.52096860199
347.5151327562304
347.5070527531474
347.5022041944685
347.5361187666788
347.5218055643101
347.5097954426839
347.4931361564377
347.4678149875785
347.3948755500589
347.1458065090273
346.4604592268311
345.0930170985259
343.2247721246201
341.8271307862456
341.842677583855
343.3819333351328
345.6629094710581
347.4771562030073
347.8632034158041
347.4502612119384
347.535797973254
347.5288890197598
347.5287032348633
347.5277551985473
347.5264489662381
347.5259653395426
347.4576280954833
347.4640163463995
347.470419712577
347.4802208510783
347.489579544782
347.4811359613311
347.4001236825695
347.138295782057
346.5648581375138
345.6819329854088
344.8408105724955
344.677227679778
345.491868689212
346.8009319554978
347.7098220922466
347.7450362089395
347.4537802995413
347.5412357088468
347.5297834142602
347.5306303127712
347.5305703273058
347.5305041475822
347.5306338643233
347.5289585382832
347.5316846728973
347.5339568387541
347.5372264824384
347.5407571127128
347.5421025127199
347.5349872880099
347.4982104046862
347.3892840085327
347.1700587043567
346.8839114347138
346.7199465414259
346.9005019068435
347.3756502069483
347.7313484107698
347.6480556497909
347.4612957689171
347.5458397780087
347.5291136408317
347.531184298736
347.5311242278709
347.5312447088843
347.5314144371566
347.5460213103975
347.5443578555896
347.5428641323337
347.5404208702703
347.5376011808677
347.5357558973724
347.5360813940566
347.5386190653104
347.5392038934088
347.5289506477226
347.5036812856702
347.4822106658048
347.5069972444488
347.5895211510824
347.6461342020912
347.5765595430935
347.4823342967289
347.5455777148459
347.5286723565642
347.5314065103293
347.5312274785043
347.5313650299718
347.5315088014931
347.5236076649387
347.5239997276677
347.5243757196896
347.5249034330527
347.5254739066073
347.5262254659589
347.5279713335667
347.5318754014222
347.5388049192761
347.5485586078848
347.5596835287973
347.5704784239269
347.5799132513451
347.5846449168177
347.573347248892
347.5375405645993
347.5079946035834
347.5404235428051
347.529243611411
347.5314307782485
347.5312583408968
347.531377903636
347.5314908212804
347.5315158089571
347.531544685473
347.531579293888
347.5315922515542
347.5316261631754
347.5316634258139
347.5315824062603
347.531450154344
347.5318371098674
347.533630380076
347.5372737906865
347.5420814012355
347.5460488411293
347.5461320716745
347.5396968705842
347.5286856514556
347.5240232446415
347.5350404857706
347.5302317785871
347.5313448866742
347.5312739436218
347.5313631376624
347.5314463896324
347.5299028270663
347.5299488376053
347.5300122154487
347.5300493998045
347.5300394509029
347.5300012866177
347.5299983977037
347.5300783402227
347.5302300937698
347.530451192111
347.5308354945656
347.5314708722984
347.5321770048283
347.5323876793369
347.5315171766652
347.529960686745
347.5297444491258
347.5321988892933
347.5308789977299
347.5312610280737
347.5312693354769
347.5313300253991
347.5313862218442
347.5300273135981
347.5300718358357
347.5301329046973
347.5301855817324
347.5302228331616
347.5302480773494
347.5302707910539
347.5303032032981
347.5303573173398
347.5304383617919
347.5305420837182
347.5306627991858
347.5307907920205
347.5308888417134
347.5308986014704
347.530839726349
347.53092291515
347.5312989671776
347.5310953809301
347.5312049923436
347.5312384455052
347.5312777338573
347.5313108545532
347.5299594350473
347.529996582833
347.5300515354156
347.5301024657709
347.5301397186167
347.530163254383
347.5301839648693
347.5302175979902
347.530275737923
347.5303605452745
347.5304655864421
347.5305800159857
347.5306928061804
347.5307947258601
347.5308787750562
347.5309450493904
347.5310098114746
347.5310868353783
347.5311020300659
347.5311497893742
347.5311822433043
347.5312062125768
347.5312211870283
347.5298961988033
347.5299257883218
347.5299726199205
347.5300204852422
347.5300612518322
347.5300921187933
347.5301182507682
347.530150409537
347.5301993649787
347.5302708282409
347.5303635105599
347.530470508021
347.5305824164973
347.5306902228042
347.5307870638305
347.5308691724747
347.5309364724561
347.5309915725921
347.5310350000555
347.5310731135585
347.5311004926767
347.5311144664493
347.5311171629872
347.5298303552275
347.5298521886649
347.5298897459779
347.5299314646995
347.5299709497247
347.5300042322926
347.5300331386417
347.5300648802639
347.5301084185114
347.5301702401146
347.5302518093465
347.5303494932122
347.530456284013
347.5305640533422
347.5306653618571
347.530754533347
347.5308282139055
347.5308864069369
347.5309339633701
347.5309711056839
347.5309957527174
347.5310045701323
347.5310004728053
347.5297607816172
347.5297753718544
347.5298036685649
347.529837851404
347.5298733516571
347.5299059762826
347.5299353818642
347.5299658780943
347.5300044373884
347.5300574618798
347.5301281685853
347.5302155417025
347.5303148924576
347.5304193335768
347.5305213788929
347.5306142502114
347.5306929389396
347.5307558626845
347.5308065275123
347.5308447998063
347.5308694918624
347.5308775037477
347.5308718914924
347.529687744102
347.5296961355097
347.5297161416805
347.5297427042067
347.5297728359224
347.5298026226815
347.5298304738835
347.5298585581701
347.5298919655293
347.5299364659446
347.5299961856662
347.5300720993953
347.5301617638488
347.5302600053948
347.5303600819625
347.5304548842238
347.5305382993906
347.5306069933623
347.5306615426415
347.5307023626019
347.5307289476052
347.5307387855213
347.5307348754655
347.5296111999629
347.5296147731981
347.5296281486404
347.5296481118446
347.5296728342276
347.5296988717143
347.5297240113883
347.5297489482165
347.5297772007233
347.5298137078577
347.5298629353214
347.5299272603326
347.5300061213239
347.5300960880676
347.5301915985358
347.5302860639321
347.5303729991812
347.5304469570576
347.5305046436094
347.5305489019354
347.5305781647529
347.5305912446765
347.5305912053566
347.5295310895965
347.5295313902896
347.5295401677927
347.5295552815981
347.529575601475
347.529598131991
347.5296203977154
347.5296421291544
347.5296656200369
347.5296949874709
347.5297347467035
347.5297882787701
347.5298566470257
347.5299380507832
347.5300280343985
347.5301203543121
347.530208131821
347.5302849690914
347.5303464953666
347.530393656135
347.5304254444663
347.5304415144996
347.5304451852308
347.529447395268
347.5294459542732
347.5294522328203
347.5294645454277
347.5294820581897
347.5295020840608
347.5295220726755
347.5295411309499
347.5295606432005
347.5295839641249
347.5296154590496
347.5296591600999
347.5297173943463
347.529789800669
347.529873070497
347.5299615180755
347.5300481870133
347.5301261300763
347.5301901250713
347.5302392997805
347.5302728811367
347.5302912546794
347.5302980731691
347.5293601330408
347.5293583668428
347.5293640495571
347.5293755447613
347.5293919892928
347.5294108519674
347.5294295601418
347.5294468209669
347.5294633296779
347.5294817936064
347.5295063484521
347.5295414166821
347.529590282363
347.5296538292238
347.5297298859564
347.5298134706537
347.5298977512418
347.5299754582804
347.5300406543531
347.5300910303889
347.5301255709024
347.5301449573074
347.5301530762324
347.5292695313522
347.5292686079224
347.5292751906664
347.5292874414907
347.5293042721789
347.5293231764772
347.5293415666414
347.5293578806341
347.529372305934
347.5293870257628
347.5294059238151
347.5294336364345
347.529474145016
347.5295293326458
347.5295980304709
347.5296759161173
347.5297563877804
347.529832147749
347.5298969606829
347.5299471598066
347.5299817584279
347.5300012731456
347.5300095243076
347.52917588327
347.5291767211896
347.5291851916423
347.5291992110016
347.5292173560089
347.5292370767795
347.529255766061
347.5292716743334
347.5292846251596
347.5292964111721
347.5293107019163
347.529332236261
347.529365497771
347.5294131573394
347.5294748496138
347.5295468413566
347.529622839906
347.5296956611737
347.5297588910731
347.5298080098388
347.529841913885
347.529860717842
347.5298679309397
347.529079947866
347.5290830247649
347.5290937174697
347.5291097200567
347.529129344994
347.5291499583456
347.5291689446701
347.5291844445833
347.529196051301
347.5292053130667
347.5292157422151
347.5292321611968
347.529259404374
347.5293006720309
347.5293561507966
347.5294224755201
347.5294935368617
347.5295622245474
347.5296222183974
347.5296690345393
347.5297015267304
347.5297194201009
347.5297257926521
347.5289825835587
347.528987857856
347.5290003256636
347.5290177054042
347.5290380928067
347.5290588735368
347.5290774564377
347.5290919474566
347.5291018546994
347.5291086139843
347.5291157076676
347.5291280637814
347.5291507532761
347.5291872692054
347.5292379749118
347.5292995579224
347.529365831806
347.5294296797542
347.5294850582137
347.5295280914743
347.5295578416807
347.5295744700555
347.5295808071626
347.5288845232499
347.5288911497562
347.5289038356335
347.5289206483345
347.5289397991964
347.5289588845366
347.5289755645167
347.5289881266387
347.5289961592728
347.5290010899752
347.5290063346318
347.5290167103694
347.5290371179933
347.5290708057198
347.5291178514643
347.5291746842857
347.5292350263615
347.5292920091659
347.5293403560216
347.5293774902808
347.5294037763658
347.5294206114714
347.5294307385258
347.5287842916258
347.5287907094047
347.5287998980473
347.5288116462904
347.528824707957
347.5288377240366
347.5288494941606
347.5288593276352
347.5288674336817
347.528875163014
347.5288848920043
347.5288994768596
347.5289213512798
347.5289515472643
347.528989125587
347.5290313661582
347.529074759966
347.52911636386
347.5291547011718
347.529189584998
347.5292217300935
347.5292514862059
347.5292786747906
273.0761452446658
273.086546288713
273.1376545395896
283.6517920974466
273.0836672973339
273.0893190687444
273.1101721663081
273.2312296025161
273.0978814776722
273.0993977956971
273.1093694879858
273.1428162841782
273.1126177210667
273.1117018007503
273.1159744961238
273.1313658782395
273.1212278181834
273.1214532420562
273.1244847137155
273.1344248145071
273.159147903065
273.1374852872626
273.1378263058309
273.14542003798
278.1373493747689
273.6916371609951
273.1665134311803
273.1644681096105
282.7969790310035
278.4771713169868
273.6641467988399
273.2018376830924
287.0165332219472
282.7067513441144
277.2799807199672
273.3140768139239
291.9286007703754
287.5103723435037
282.0470649806517
275.246578409863
299.6971080449035
295.8835629889585
290.7769072597681
284.3794547778479
312.1628373600477
310.1944338240512
307.6746410889154
304.653773485438
325.8316405290157
325.5915391786597
325.4138746438487
325.7754754271153
336.4599266128608
336.9120169803444
337.520345230707
338.4862728517803
342.8560855544706
343.2656218613236
343.790207319315
344.4367123526408
345.9056320188156
346.114286652115
346.3666838365006
346.6486463120723
347.0629534077677
347.1401256950359
347.2284793794717
347.3188680515906
347.4182953380831
347.4408102038905
347.4651352655135
347.4881567591611
347.5084455783268
347.5138831445017
347.5194222708532
347.5243107420433
347.5276824216477
347.5288382989547
347.5299545623097
347.5308948086785
347.5311563749709
347.5314177016827
347.5316649622245
347.5318813168979
347.5316585737772
347.5317551465393
347.5318518484879
347.531948719957
347.5316741081505
347.5317376206188
347.5318060085325
347.531879913288
347.5316142152894
347.5316655611488
347.5317236757764
347.5317887073848
347.5315367915172
347.5315800802539
347.5316310317637
347.5316898535273
347.5314495907592
347.5314864975629
347.531531326293
347.531585004993
347.5313530113394
347.5313850346096
347.5314248590502
347.5314741907506
347.5312474251245
347.5312756579347
347.5313114126625
347.5313570543717
347.5311326203831
347.5311581796711
347.531190897983
347.531233443325
347.5310093845189
347.5310329604051
347.5310633982632
347.5311033708824
347.5308784035893
347.5309007691767
347.5309296396889
347.5309674713836
347.5307414814895
347.5307629353867
347.5307905413982
347.530826536459
347.5305999249552
347.5306208970738
347.5306475494048
347.5306819169862
347.5304559812827
347.5304763307432
347.5305019058153
347.5305346993021
347.5303107057526
347.5303305083773
347.5303550548552
347.5303863189949
347.5301658261497
347.5301845918872
347.5302078018536
347.5302374908104
347.5300213233862
347.5300389688649
347.5300608949693
347.5300890955664
347.5298776568857
347.529893888928
347.5299144189835
347.529941210023
347.5297338978887
347.5297490359398
347.5297684970394
347.52979413894
347.5295888537235
347.5296034616861
347.5296223101992
347.5296472605202
347.5294430673042
347.5294582764113
347.5294772715475
347.5295019426361
347.529305196331
347.5293228363273
347.5293420566441
347.5293648124663
352.144100511978
346.340277164267
346.3339110974783
347.00382326818
347.4200577399675
347.5212714122317
347.5343136388792
347.5356170514755
347.5358509581463
347.535982080973
347.5360859154732
347.536170171047
347.5362386703164
347.5362915349241
347.5363325023212
347.5363620020617
347.5363821837906
347.536399184655
347.536445126801
273.4139734235306
321.6920988183261
343.2009277702995
345.406624865635
346.9785071177581
347.4506165277581
347.5263821412319
347.5348371211696
347.535728911536
347.5359111370797
347.536014322991
347.5360935171236
347.5361551050502
347.5362030925779
347.5362406224947
347.5362677016739
347.5362864809277
347.5363016193281
347.5363490412125
273.2310307833664
275.5638918843069
323.8849965584075
340.7912850877977
345.4939287396124
347.1413665077287
347.4790157492199
347.5293152814748
347.5351861650761
347.5358072209521
347.5359329073338
347.5360048118792
347.5360561598366
347.5360984019375
347.53613054728
347.5361532408916
347.5361689258507
347.5361813243192
347.5362309140605
273.2063803490402
273.4298507880592
302.170028361844
328.203236974304
341.1697743561585
345.9963873157589
347.2676731842008
347.5009779162332
347.5322926099897
347.535527171086
347.5358455967354
347.5359142347091
347.5359580053402
347.5359926090336
347.5360181737685
347.5360356738589
347.5360472804583
347.5360570779791
347.5361065154522
273.1980978637184
273.2864911127535
290.7684711176512
313.3229058188748
333.0711836915618
343.3394205851005
346.6828974013689
347.4095125986998
347.5217654676185
347.5345736794415
347.5357134031127
347.535825027756
347.5358626017866
347.5358884976342
347.5359069157057
347.5359188082521
347.5359264068005
347.5359331739015
347.5359815244528
273.2013465210293
273.2638990203789
274.6341902628084
303.8089136274857
326.1001658921727
340.1334605960167
345.7774207981011
347.2411817314241
347.4998452049227
347.5324377274706
347.5354924343387
347.5357327549688
347.5357662525541
347.535783065521
347.5357941743603
347.5358005081098
347.5358039038945
347.535808118567
347.5358539544505
273.2133803711351
273.2770917687077
273.5506918607593
298.4208394802615
322.0812149124001
338.1099243645751
345.1271826754314
347.1081266676124
347.4815951347576
347.5306373764755
347.5352996629608
347.5356394667136
347.535666910064
347.5356748476299
347.5356790360728
347.5356801140415
347.535679850567
347.5356814221518
347.5357245731361
273.2388760278674
273.290200428092
273.4295477071579
296.2815139369654
321.8366369189765
338.4008900975679
345.3035167522623
347.1575387342157
347.4897523672883
347.5314684953279
347.5352870188664
347.535547760312
347.5355607605178
347.5355605881905
347.5355587513485
347.5355553337151
347.535551743874
347.5355513319666
347.5355910684946
273.2751094271431
273.3182059642293
273.4727948814874
300.3285931262762
326.5439483942245