/*--------------------------------*- C++ -*----------------------------------*\
| =========                 |                                                 |
| \\      /  F ield         | OpenFOAM: The Open Source CFD Toolbox           |
|  \\    /   O peration     | Version:  2206                                  |
|   \\  /    A nd           | Website:  www.openfoam.com                      |
|    \\/     M anipulation  |                                                 |
\*---------------------------------------------------------------------------*/
FoamFile
{
    version     2.0;
    format      ascii;
    arch        "LSB;label=32;scalar=64";
    class       volVectorField;
    location    "0.2";
    object      U;
}
// * * * * * * * * * * * * * * * * * * * * * * * * * * * * * * * * * * * * * //

dimensions      [0 1 -1 0 0 0 0];

internalField   nonuniform List<vector> 
2268
(
(0.03617489619319759 -0.01662440489280825 0)
(0.0867287227055894 -0.01685815906567846 0)
(0.1469603786110868 -0.01680239417235237 0)
(0.2074761937067101 -0.01695702647619085 -4.589380361609643e-24)
(0.2685198746748162 -0.01721138157907325 -9.425505384764671e-24)
(0.3307016340628444 -0.01750714108331203 -4.889520556122151e-24)
(0.3942259187760541 -0.01783026040730485 -5.096827637268459e-24)
(0.4591006227931945 -0.01815345220287536 -1.066401689798749e-23)
(0.5251974148816103 -0.01842842386019586 -1.119570904579206e-23)
(0.5921796154330877 -0.0185843605354476 -5.896562259969715e-24)
(0.6593967648167834 -0.01852328796405948 0)
(0.7257579677848729 -0.01811435027216141 0)
(0.7895843938177454 -0.01718788516949082 0)
(0.8484302649346152 -0.01552446905551045 0)
(0.8988540902930473 -0.01284307639394645 0)
(0.9361518958956392 -0.008807584512949459 9.776765225404582e-24)
(0.954146488933426 -0.003081123713051013 1.163562180621755e-23)
(0.9453328161476482 0.004640590967375907 1.386171725893664e-23)
(0.9006445877771745 0.01533726858128715 3.322089519890593e-23)
(0.8100236332595945 0.02991848853487398 1.880169180644946e-23)
(0.6667915671487858 0.04861644074942054 0)
(0.4306879484007966 0.07432334100201719 0)
(0.2401486795761776 0.09931977153485486 0)
(0.03630203508986714 -0.04094070077060775 0)
(0.08730065083362015 -0.04156086427095557 0)
(0.1479370067380394 -0.04169404978717387 0)
(0.2087286783847435 -0.04226072307489772 -1.187901392768969e-23)
(0.270085995927947 -0.04302861390885324 -2.428883490810367e-23)
(0.3326050420044586 -0.04388156816376414 -1.254394143342237e-23)
(0.3964825513406895 -0.0447832764196541 -1.302817579976649e-23)
(0.461740891875227 -0.04565931419025031 -2.718949184146635e-23)
(0.5282721649517222 -0.04638079349261802 -2.851495163100405e-23)
(0.5957649328592954 -0.04675835293888938 -1.503449592254748e-23)
(0.6636024913575063 -0.046525287127496 0)
(0.7307371325783167 -0.0453178852786436 0)
(0.7955401427470398 -0.04265494176077511 0)
(0.8556175921586422 -0.03790236353740029 0)
(0.9075750985313498 -0.03023023241607276 0)
(0.9467504866668498 -0.01860149004567989 2.732434448060837e-23)
(0.9668850630525383 -0.001846497111561554 3.303470047962643e-23)
(0.9602868992879362 0.02099038739383336 4.054453290686674e-23)
(0.9175996601153913 0.05107697872002716 9.942782820407071e-23)
(0.8277934352499088 0.08870195159415011 5.927292503574627e-23)
(0.6836572542631809 0.131658959759806 0)
(0.4415416251591648 0.1796474572023328 0)
(0.2434697614103229 0.2097115380268013 0)
(0.0359062457019586 -0.06955937049979753 0)
(0.08699663122369784 -0.07039785107845209 0)
(0.1475892018397748 -0.07085212255637864 0)
(0.2082005531972306 -0.07188831937293773 0)
(0.2694426910028175 -0.07323283443128742 0)
(0.3318906717756107 -0.07474659455322551 0)
(0.395737721744093 -0.0763619449252569 0)
(0.4610330431360649 -0.07795125878126653 0)
(0.5277056590856511 -0.07930427932018404 0)
(0.5954901936475024 -0.08011225281833483 0)
(0.6638299999937136 -0.07993698403486928 0)
(0.7317529156577679 -0.07817814749378243 0)
(0.7977194912353245 -0.0740384105456819 0)
(0.859426792468108 -0.06646162930892588 0)
(0.9135446384199052 -0.05406429676628507 0)
(0.9554084187429813 -0.03512998914101775 0)
(0.9787170731175058 -0.00773919175633524 0)
(0.9758214132118462 0.03023434024514034 0)
(0.9372124123570041 0.08076461700426309 0)
(0.8509530532467745 0.1446018540482198 0)
(0.7092138652360902 0.2190592420128454 0)
(0.4637583853946976 0.301895823340149 0)
(0.2544066265198347 0.3589508098087452 0)
(0.03544443188703596 -0.09746482258810481 0)
(0.08661623715906128 -0.09844051978858208 0)
(0.1470784743314016 -0.09922189114729225 0)
(0.2074336675884118 -0.1006721574906619 0)
(0.2684995630000502 -0.1025225701975592 0)
(0.3308306168879718 -0.1046331451289629 0)
(0.3946259699190179 -0.1069054543035326 0)
(0.4599738695336609 -0.1091607286192249 0)
(0.526857053054557 -0.1111134727116989 0)
(0.5950791758743897 -0.1123431111915292 0)
(0.6641738338644569 -0.1122474992811623 0)
(0.7332835620799015 -0.109996543967668 0)
(0.8010082993054497 -0.1044783854665174 0)
(0.8651899723703605 -0.09419818715613594 0)
(0.9226035258209023 -0.07717343226193102 0)
(0.9686101824814276 -0.05092535867251471 0)
(0.9968398698817575 -0.01262222726877847 0)
(0.9994029920744811 0.04040631387851534 0)
(0.9667266964040586 0.1108472568000423 0)
(0.8859689214309235 0.2004299275232217 0)
(0.748536129197624 0.3073147294809272 0)
(0.500593746610283 0.4287856986033692 0)
(0.2747921545516017 0.5225362665265345 0)
(0.03491825771029074 -0.1246011859555924 0)
(0.08611156295287221 -0.1257889397540908 0)
(0.1463521473116408 -0.1270397969420851 1.714995854113195e-22)
(0.2063884030132295 -0.1290082178301237 1.74307528304037e-22)
(0.2672235250532396 -0.1314692426407742 0)
(0.329397249032771 -0.1342942807945737 1.851115159052124e-22)
(0.3931263909921816 -0.1373574266780594 0)
(0.4585494537234183 -0.1404353286849177 -2.024892141327124e-22)
(0.525718901482461 -0.1431781141000539 0)
(0.5945302543895555 -0.1450671948513986 -2.283325550458127e-22)
(0.6646378582342241 -0.1453523915627737 -2.462134419663583e-22)
(0.7353401287400669 -0.1429930254249544 0)
(0.8054310346501617 -0.1365798832491542 0)
(0.8729526356486077 -0.1241781343877069 0)
(0.9348154416383009 -0.1031830778566678 0)
(0.9863974694215529 -0.0703314991024749 4.890096147782252e-22)
(1.021276411024759 -0.02191138174725335 6.071233923604064e-22)
(1.03116903069453 0.04588458837580226 0)
(1.006666051417731 0.1364791120469555 0)
(0.9340903398053342 0.2525522862969614 0)
(0.8037718973227831 0.3938387779497857 0)
(0.5551895069264127 0.5591480721150415 0)
(0.307508933913782 0.7031919060572153 0)
(0.03436555756905805 -0.1509729673237903 -2.74481271173757e-22)
(0.08550384734780254 -0.1522662263683422 -2.740134265308073e-22)
(0.1454327877774299 -0.1539548791868794 2.076416378253142e-22)
(0.2051057439977641 -0.1563901050352554 2.107331971309906e-22)
(0.2656675232163124 -0.159427381076844 0)
(0.3276536555370914 -0.1629545285120944 2.229906388065576e-22)
(0.3913105782967537 -0.1668196958685328 0)
(0.4568365050475357 -0.1707609625933892 8.1164338288951e-23)
(0.52436855100765 -0.1743746183339884 3.432598915229999e-22)
(0.593916606725835 -0.1770584223125025 -2.747168027687232e-22)
(0.6652870316776008 -0.1779320308760667 -2.965425276240699e-22)
(0.7379797526729748 -0.1757680186313946 0)
(0.811046289647104 -0.1688812060059371 -7.263386124484383e-22)
(0.88278943971152 -0.1548926181258319 -8.331383511187991e-22)
(0.9502824014812216 -0.13054582889041 -6.560328497790837e-22)
(1.008914025640641 -0.09177695293422741 -1.992719073973585e-22)
(1.052253843953212 -0.0340697302581768 7.453334563015446e-22)
(1.071422057906177 0.04740941338861806 0)
(1.057419656659219 0.1572063508194195 0)
(0.9961570792658291 0.2995540992578608 0)
(0.8771815345498787 0.4769822535729761 0)
(0.632981133268123 0.6930682774567777 0)
(0.3581483355540414 0.9110376880250427 0)
(0.03386521564231913 -0.1786710498260808 -3.449569899478115e-22)
(0.08490509694288575 -0.1798416258185863 -3.455412986986761e-22)
(0.1444202179011585 -0.1818414096463032 0)
(0.2036943557104199 -0.1846110915629526 0)
(0.2639390612351645 -0.1881178056124939 0)
(0.3257022051119758 -0.1922719586710498 0)
(0.3892720312012281 -0.1968985953017843 0)
(0.4549137393403124 -0.2017036861495163 4.166947733227219e-22)
(0.5228625630501808 -0.2062400680654835 4.418424439714328e-22)
(0.5932641527642808 -0.2098349175614516 0)
(0.6661078411520239 -0.2114931142539713 0)
(0.7411447701231284 -0.2098209310673177 0)
(0.8177540924946723 -0.2028634716284142 -9.330010329288324e-22)
(0.8945562377781835 -0.1877504391631323 -1.061529337832164e-21)
(0.9687949192574233 -0.1604721399600051 -8.258441263033176e-22)
(1.03583461856326 -0.1160296647091902 -9.887880818430617e-22)
(1.089253428734586 -0.04890616056135152 0)
(1.119523325232099 0.046555286871353 0)
(1.11860856490727 0.1744989323537793 0)
(1.072573811405639 0.3414136716760243 0)
(0.9712748117950012 0.5547365106117513 0)
(0.7428927824394514 0.827905014537088 0)
(0.4366098710255074 1.161612623551773 0)
(0.03345226575180418 -0.2107480589788226 0)
(0.08437726025259054 -0.2119556782650903 0)
(0.1433458875059007 -0.2144188919213587 0)
(0.2021851451836582 -0.2177244761035297 -4.244735284727886e-22)
(0.2620557607149216 -0.2219390345453393 -8.763518470807591e-22)
(0.3235407688194643 -0.2269997039591463 -4.558878095884674e-22)
(0.3869838680548143 -0.2327224709758313 -4.780239091505491e-22)
(0.4527231870239816 -0.2387965223201434 -5.050795523335799e-22)
(0.5211056546047579 -0.2447506549011253 0)
(0.5924351064555803 -0.2498634003655508 0)
(0.6669178200860392 -0.2530486817283817 0)
(0.7446181498530842 -0.252778385190613 0)
(0.8253319320256229 -0.2468195102096872 7.649853967804795e-22)
(0.9080653748076045 -0.2316889949877576 8.687452367824551e-22)
(0.9902568866830588 -0.202434307495782 1.008918760586057e-21)
(1.067280922638542 -0.1529754951637731 2.399055165026677e-21)
(1.132701506137459 -0.0767821486552854 1.462928874166301e-21)
(1.175387092199295 0.03285973792335936 1.811260591448064e-21)
(1.189647199250628 0.1803819786314764 4.375729856255988e-21)
(1.162802763484575 0.37327632936163 2.719387701818979e-21)
(1.087542550259602 0.6233708714514663 0)
(0.8997102240164786 0.9585822476085888 0)
(0.5592655350106682 1.487188060527212 0)
(-0.09157596430159327 0.03041651136219457 0)
(-0.1769430561053029 0.01876314501920859 -8.165765169748491e-21)
(-0.2268009585461339 0.007076890173410248 -1.231846980739326e-20)
(-0.2328194353515637 -0.001636567887826806 -6.630625524707764e-24)
(-0.2080399811739277 -0.006450735108547659 -7.016739345373073e-21)
(-0.1705987919272776 -0.00814549849393882 -6.50697770182948e-21)
(-0.1302907162871337 -0.007948352086249836 0)
(-0.09341956620406032 -0.006953107072428491 0)
(-0.06235641895650601 -0.005549978437721171 -1.271989659580286e-20)
(-0.03766411656858874 -0.004294655287188621 -3.550092479611594e-21)
(-0.01915178026867399 -0.002953439950089126 5.896279665428088e-21)
(-0.006096135625205725 -0.001997846911051037 4.853343822008716e-21)
(0.002300256443616078 -0.001167111539321018 3.9287167430974e-21)
(0.007185747150504296 -0.0005247299592313043 0)
(0.009246227492162249 7.803993613736447e-06 0)
(0.009142715039647729 0.0004002830074237734 1.877632877644082e-24)
(0.007514654511674264 0.0006939610195266467 -2.523582450180814e-21)
(0.00482498226327277 0.0008621659253457206 -1.489823232127022e-21)
(0.001714782671918224 0.000971320266965423 -3.037401317469882e-24)
(-0.1013234455577426 0.08351017770498652 0)
(-0.1916922469476616 0.05438488303702525 -8.443681979471015e-21)
(-0.241252151963174 0.02008262284125584 -1.270411061843145e-20)
(-0.2430878408268378 -0.006580310074607985 -1.897467324315245e-23)
(-0.2125408293705709 -0.02073767841749126 -7.063372251300292e-21)
(-0.1703682473986432 -0.0254406258740241 -6.515132678565019e-21)
(-0.1266556842566259 -0.02463957701693199 0)
(-0.08744172834450023 -0.02131260674448034 0)
(-0.05499342251368276 -0.01699881414568333 0)
(-0.02958469227390004 -0.01285865133718145 7.070924008005382e-21)
(-0.01089392416947361 -0.008901480797411833 5.865158196752637e-21)
(0.001761900793585036 -0.005776716845873915 4.826375117858888e-21)
(0.009498497966799071 -0.003115279785311491 3.907172305435827e-21)
(0.01354162852667296 -0.001046412928267612 0)
(0.01461158665618514 0.0006261324312990852 0)
(0.01339166642642423 0.001827245203202511 5.611414267499476e-24)
(0.01058497624595101 0.002699835761158377 -2.505448259064419e-21)
(0.006671579968566364 0.003228997983061521 -1.487656609892814e-21)
(0.002302780834079012 0.003331020125359671 -9.032067416727312e-24)
(-0.114483747292646 0.1461259093797102 0)
(-0.2111159200062717 0.09236733730405719 -4.513938046589291e-21)
(-0.2595923875328617 0.03181215415513424 -6.742871611853376e-21)
(-0.255642719561296 -0.01394551062896533 0)
(-0.2180905775266252 -0.03721231656359142 0)
(-0.1713028632946094 -0.04423611484184652 0)
(-0.1251099802424559 -0.04220000033712559 0)
(-0.08478571078058265 -0.03606215038102435 0)
(-0.05201277004787137 -0.02859924470110641 -1.256010570670835e-20)
(-0.02668303772492471 -0.02131550900154269 3.501652882415831e-21)
(-0.008267449500464102 -0.01475403371732838 1.160834036161839e-20)
(0.004027639797985998 -0.009310502185248362 0)
(0.01141768876478307 -0.004856498208959585 0)
(0.01511340345646586 -0.001256999325651242 0)
(0.01585760308644293 0.001458324963508092 0)
(0.01432684262075614 0.003486096153954638 0)
(0.01124375688948399 0.004914695707841242 -2.478608698983156e-21)
(0.007063881487119868 0.005812579777824475 -1.459492744939198e-21)
(0.002431132641034562 0.006006996214916155 0)
(-0.1350869336983857 0.2175686952761304 0)
(-0.2418281576592021 0.1326592102396297 -7.049383075000286e-21)
(-0.2884491002863168 0.04132789353570748 -8.374277364466395e-21)
(-0.2747349383153982 -0.02527827841987711 0)
(-0.2261556475141364 -0.05691684843824826 0)
(-0.1726080073804934 -0.06494502275852722 0)
(-0.1229760460739578 -0.06059873687926585 0)
(-0.08126605007660112 -0.05121554988087833 0)
(-0.04820457643661386 -0.04029502555346158 -2.481714773166474e-20)
(-0.02310290230996501 -0.02981174669101797 -1.381195126421781e-20)
(-0.005156334180272117 -0.02042448385488688 5.714076760520149e-21)
(0.006582875179257272 -0.01271645388874593 4.682698883929779e-21)
(0.01350647818773743 -0.006453880704971434 3.792960349017747e-21)
(0.01675767319751633 -0.00135004727641971 0)
(0.01709297330276225 0.002384718610648583 0)
(0.01524512846660753 0.00524574956768422 1.546537421526573e-22)
(0.01186132589039481 0.007242799943663421 -1.077296367212174e-21)
(0.007421417655016173 0.00850110385508137 -7.161054089876372e-22)
(0.002549085947471153 0.008762229436984802 0)
(-0.1648098910249502 0.3020915964755606 0)
(-0.2854357883264886 0.1756417798014145 -5.961856545069193e-21)
(-0.3280174106859169 0.0463740615425257 -9.601898618613447e-21)
(-0.2987511628861134 -0.04271566784552367 -1.9219719420941e-22)
(-0.235221000557639 -0.08101242382994978 0)
(-0.1731413132911956 -0.08801540579248018 0)
(-0.119485035604316 -0.08008744850019156 0)
(-0.07629785663726615 -0.0667550897730361 0)
(-0.0430040335544804 -0.05199974907611857 -1.221763348863438e-20)
(-0.01826354708076332 -0.0380660155502903 -3.388743348332639e-21)
(-0.001011470928390368 -0.0259024673889986 5.593501696035073e-21)
(0.009960018103265265 -0.01591451585593576 9.146763702160916e-21)
(0.01626368891722255 -0.007726269234992972 3.703636545947318e-21)
(0.01889785260503061 -0.001313492422261358 -2.950839906634574e-21)
(0.01869056675007538 0.003531291186466984 0)
(0.01641959707778139 0.007163891864845366 1.965934457537192e-22)
(0.01265086674865001 0.0097054831399923 3.527077423794748e-22)
(0.007875621323663755 0.01130809513001208 1.633424000670024e-22)
(0.00269792846676841 0.01162870120002991 0)
(-0.2054135630520625 0.4053651460488683 0)
(-0.3434631715016236 0.2205775468328627 -3.805231503349689e-21)
(-0.3770609443317569 0.04411596567211225 -7.938303266495649e-21)
(-0.3241384014448311 -0.06627710971817485 4.143578838175545e-23)
(-0.2430930889199407 -0.1090421184695895 0)
(-0.1715709783924954 -0.112864900236911 0)
(-0.1138299120845285 -0.1002628344560963 0)
(-0.06939939488327124 -0.08235768270322436 9.918298740765618e-22)
(-0.03613753522754423 -0.06344492839845921 9.034245614082118e-22)
(-0.01206063853064652 -0.04602605148047714 1.322997546171347e-20)
(0.004172800963006828 -0.03105095711553519 1.01929176901404e-20)
(0.01424646860594555 -0.01874518603954834 8.292249835207944e-21)
(0.0196824925794363 -0.008700648229959543 3.592663778865434e-21)
(0.02152842319197282 -0.001014722443159918 -2.859830935388496e-21)
(0.02068825039218298 0.004906119997202585 0)
(0.01786507192736522 0.009280366329240796 0)
(0.01362212588230183 0.0123377947417007 2.124101915250862e-22)
(0.00843340851155399 0.01426457343587782 4.589017402785826e-22)
(0.002880232538154993 0.01463675944399587 2.521392197104111e-22)
(-0.2606077117206723 0.5323989077639424 0)
(-0.4195319274658286 0.267664521009247 -1.855315059974232e-20)
(-0.4328272738657045 0.03653240719493208 -2.153230245750632e-20)
(-0.3465040568934807 -0.09845229522851025 4.56914764186152e-23)
(-0.2478833693552515 -0.1426599752024295 0)
(-0.1667653847682382 -0.1402474326153633 0)
(-0.1051574121717187 -0.1211246436403081 0)
(-0.05992832460230317 -0.09782360195877192 1.176701981799486e-21)
(-0.02725339860109877 -0.07435470192784698 1.066013755801781e-21)
(-0.004365733599004114 -0.05354943716235476 6.415035299330764e-21)
(0.01052708283185997 -0.03570101143877204 4.445886852345504e-21)
(0.01940371990226607 -0.0210555698727837 7.872377830597325e-21)
(0.02376930254820956 -0.009359660304782242 6.920656001219209e-21)
(0.02466008289788344 -0.0003039683718624236 0)
(0.02305176430860098 0.006575721431951544 0)
(0.01956882860946629 0.01163888646807378 0)
(0.01476539253186457 0.01517491208773257 0)
(0.009089242222796563 0.0174002029676728 3.044755696826431e-22)
(0.003095339267266952 0.01781197000536541 2.927522371080406e-22)
(-0.3384558021522182 0.7586006242844744 1.37518457590953e-20)
(-0.520063053469687 0.3409332709557452 -1.643705823973304e-20)
(-0.4904027501164508 0.01026066907433689 -2.843328608732484e-20)
(-0.3616984377446755 -0.1554727047142594 0)
(-0.2482056213822214 -0.1919004723558739 0)
(-0.1581869070284308 -0.177206428211336 0)
(-0.09280727437228087 -0.1472674745693963 0)
(-0.04696672411940658 -0.1157141178268303 0)
(-0.01533996684059958 -0.0859910373526452 -1.135078504073912e-20)
(0.005522059626231438 -0.06099699280299117 -3.089271809748831e-21)
(0.01854572680710212 -0.03991353865924127 5.034354222227073e-21)
(0.0256786646678073 -0.02300563529421807 4.093450296478264e-21)
(0.02853628041398728 -0.009656007652259324 3.308248446308894e-21)
(0.02828531686618522 0.0006321947663409308 0)
(0.02574578702325889 0.008413383833506254 -4.762574950941855e-22)
(0.02150717747734789 0.01412800049187358 -4.156687631449162e-22)
(0.01606500039298117 0.01810958298473621 -1.054962400031236e-21)
(0.009833663867398389 0.0206105053598286 -9.664956838446889e-22)
(0.003335277344444894 0.02105645664101931 -3.314244347113799e-22)
(0.03297845066622803 -0.2445319861819721 0)
(0.0836938911629872 -0.2462448875062239 0)
(0.1419525277763189 -0.2492680457242654 0)
(0.2002875531503752 -0.2533800967497652 -4.811681056094775e-22)
(0.2596868904101988 -0.2586058551301576 -9.933770996201845e-22)
(0.3207892842463398 -0.2648972429863746 -5.172586455271008e-22)
(0.3840054686018032 -0.2720866933961297 -1.0833780209368e-36)
(0.4497522859229111 -0.2798664398436178 1.054524613941357e-36)
(0.5185045957901521 -0.2877654118190386 0)
(0.5907522773056347 -0.2950420330931081 6.667954332078505e-22)
(0.6669623702338072 -0.300550403811125 7.298055850122699e-22)
(0.7476075177927555 -0.302678191948458 -4.051944007344795e-22)
(0.8330508811746176 -0.2988882296849476 4.5827783457826e-22)
(0.9228215578529921 -0.2848590466892356 1.059977100170998e-21)
(1.014687139357015 -0.2543689432383433 1.879285591378996e-21)
(1.104423390768747 -0.1999968242706086 3.766834421875055e-21)
(1.186789453832667 -0.1141464389579817 1.833032477280867e-21)
(1.255351491882335 0.01027667992708001 2.231315392527976e-21)
(1.305251257362037 0.1763214700346135 5.375978657358687e-21)
(1.334016374501574 0.3924702284071618 3.264439998373092e-21)
(1.34930170661183 0.6704813437773907 -4.033879599357337e-21)
(1.396311807293974 1.023368722060065 -4.974909189072707e-21)
(1.406715067921381 1.542219210936199 0)
(0.03151342581943885 -0.3054469486724034 0)
(0.08135361060180463 -0.307970367928578 0)
(0.1380185122362856 -0.3117617824512679 0)
(0.1948704457897768 -0.3171190873284874 0)
(0.2529214496747322 -0.3240259102147093 0)
(0.3128216461579483 -0.3324632848701108 0)
(0.3750892377040158 -0.3423194811132642 6.0968230904294e-22)
(0.4402892769808781 -0.3533382526889464 6.495910973274919e-22)
(0.5091427111417751 -0.3651214718601065 0)
(0.5824949288262589 -0.3769908649417062 7.633770472649936e-22)
(0.6613064612346828 -0.3878442738792774 8.449843319582778e-22)
(0.7468838249824375 -0.3961883159592372 -4.758771458162323e-22)
(0.8407166516559712 -0.3991019178438939 -5.479318529337103e-22)
(0.9431406677096719 -0.3906089924498824 0)
(1.051986588363663 -0.3620958021141154 7.816652300599558e-22)
(1.16257767023966 -0.3040240466909639 9.583664628591886e-22)
(1.268839675681882 -0.2080390568582802 0)
(1.36714866857136 -0.06850762711161057 0)
(1.448639025764566 0.1200061056148494 0)
(1.512754342120018 0.3579161491024428 0)
(1.558045284867363 0.6409622107002454 -3.709905182499383e-21)
(1.612484331305567 0.9472721490601708 -2.928932151984525e-21)
(1.64412656410156 1.241110017158481 0)
(0.02998579735517839 -0.3594838431935639 0)
(0.07871681478139245 -0.3625389692935279 0)
(0.133404010764454 -0.3670354456522198 1.176359913467729e-21)
(0.1883385475933075 -0.3734798562108979 1.206848667947732e-21)
(0.244572179321757 -0.3819461400915026 0)
(0.302747285628212 -0.3924824031901328 0)
(0.3634721399763142 -0.4050664544246279 0)
(0.4274279409818775 -0.4195609461639055 0)
(0.4955726142550025 -0.4357555129179227 0)
(0.5690811988203788 -0.4531865554274619 0)
(0.6493692808862777 -0.4710570254913346 0)
(0.7387197416694665 -0.4884886737144964 0)
(0.8398741342195429 -0.5021778265502138 0)
(0.9537692176762993 -0.5036052477319645 0)
(1.077908547492556 -0.4810794287506822 0)
(1.206841548904679 -0.4229712188002493 0)
(1.333050324615591 -0.3208937223204859 3.016109740715174e-21)
(1.450654538366045 -0.1684877004595622 3.762895367901759e-21)
(1.563625327252599 0.04634730639054248 0)
(1.653026830404308 0.301481803593546 -1.000050599465667e-20)
(1.696598642252883 0.5777066491173887 -8.730772016251161e-21)
(1.713147391713626 0.8704105779225688 0)
(1.730718636338695 1.145195264858284 0)
(0.02827041737249389 -0.411618270023901 0)
(0.07546523183899317 -0.4152903149270666 0)
(0.1277473472933461 -0.4206196235356272 3.174491510100996e-21)
(0.1803093880562462 -0.4282820696767732 3.26102279184147e-21)
(0.2342010203482263 -0.4384653688118009 0)
(0.2900378567193834 -0.4513107175339404 0)
(0.3484885047353873 -0.4669199546320619 0)
(0.4102878653960829 -0.4853366081449432 0)
(0.4766038048135828 -0.5066392774713699 0)
(0.5488338238764496 -0.530714808229089 0)
(0.6287170153303351 -0.5573837477121766 0)
(0.7196543427203468 -0.5869244309234927 0)
(0.8255378832023951 -0.6151064404832161 0)
(0.9472466803069495 -0.6296391700897106 0)
(1.081091614492349 -0.616468766078242 0)
(1.220540266775161 -0.5646025610143464 0)
(1.357930596119366 -0.4714323379163133 3.478630624236263e-21)
(1.490759425063565 -0.3451937808851538 3.975711736531486e-21)
(1.614380320815567 -0.1742583953528601 0)
(1.677860347595841 0.09259584055116388 -2.093245261817684e-20)
(1.69261908217311 0.4600744913076814 -1.896755907849916e-20)
(1.695769129420155 0.819050186834951 0)
(1.705886384474046 1.122727994186417 0)
(0.02642187091081202 -0.4612825675445555 0)
(0.07166172195731565 -0.4655213269409861 0)
(0.1211385940179261 -0.4716133996374502 1.996554857006911e-21)
(0.1708988829063183 -0.4804273799247497 2.052895987859674e-21)
(0.2219394972325854 -0.4922630791997982 0)
(0.2748249839905056 -0.5073667310286498 0)
(0.3302448078370048 -0.5259868690322064 0)
(0.3889086489926789 -0.5483958925461949 0)
(0.4521617885657334 -0.5750280179325115 0)
(0.5214005013313237 -0.606230804419871 0)
(0.5985801178664218 -0.6427394125192379 0)
(0.6884081422139412 -0.686326064044541 0)
(0.7950370499992984 -0.7308590118274243 0)
(0.9171496250874143 -0.7602750923864448 0)
(1.047510976845861 -0.7617153350888346 0)
(1.177177272247455 -0.7261156201440611 0)
(1.299482666488607 -0.6426432619551044 0)
(1.393973544350974 -0.5205029830532109 0)
(1.485735042953064 -0.2072268631726338 0)
(1.66845932549857 0.254072785684369 -2.78695487876576e-20)
(1.68558180084292 0.5831809500506574 -1.766336042609732e-20)
(1.676289815212974 0.8802575281081088 0)
(1.670910668928611 1.167318888674001 0)
(0.02449087702910714 -0.5081703092350516 0)
(0.06739722656390799 -0.5129104661300408 0)
(0.1137304986360711 -0.5196681485807592 0)
(0.1603196047338497 -0.529526569806318 -4.882262300304409e-21)
(0.2080675496480932 -0.5428823455802957 -5.075289907791662e-21)
(0.2574654525966283 -0.5600844173120879 0)
(0.3091814203048071 -0.5815291156707114 0)
(0.3638307574990211 -0.6077383924635132 0)
(0.4229110173644853 -0.6395086618289794 0)
(0.4875102108892926 -0.6777311202749072 0)
(0.5599969417837426 -0.7241601701964914 0)
(0.6459155964641085 -0.7824855836074796 0)
(0.7466243416635566 -0.8446590922635372 0)
(0.8554185411096544 -0.8919564080370185 0)
(0.9630127028495367 -0.9077918897581452 0)
(1.072696220250901 -0.8654509155403575 0)
(1.16783598085926 -0.7493013370471299 0)
(1.24362639366724 -0.6320854152226595 0)
(1.502694474109496 0.01425062617064936 6.802871953246198e-20)
(1.622736414987479 0.2052606887747254 1.165690875930794e-20)
(1.673709192738679 0.595507372252053 0)
(1.668166151628903 0.9877951564365518 0)
(1.622552648792303 1.148434593506598 0)
(0.02254798228828164 -0.551999501220452 0)
(0.06282849319965925 -0.5571372527395251 0)
(0.1057926239627158 -0.5644254237401707 0)
(0.1489637661407994 -0.5751562554705313 -4.837108103403532e-21)
(0.1931284331530577 -0.5898008100796225 -5.024654194590637e-21)
(0.2386940297681523 -0.6087917635168988 -6.032042064126527e-21)
(0.2862772643714931 -0.6326582165362263 -6.408192305791271e-21)
(0.3363695230781983 -0.6621809101078276 0)
(0.3905838914523851 -0.6985391983243902 0)
(0.4494483934628287 -0.7432778440937442 -8.32682642759851e-21)
(0.5159261594853961 -0.7992854492548799 -9.358624706888712e-21)
(0.5930509952210736 -0.873819917774064 0)
(0.6760589168514759 -0.9550215863782531 1.044222304132877e-20)
(0.7628714847899125 -1.007630223846352 1.845313792712606e-20)
(0.8540228222184153 -1.009570419324304 1.055388414277861e-20)
(0.9415398856457017 -0.9543901372098881 0)
(1.168089878048275 -0.7206782985530602 0)
(1.183994652483122 -0.5930989645022052 0)
(1.137583180838971 -0.4380518749116446 3.398659909140677e-21)
(1.206776125411178 -0.1005688733957431 2.113008453744272e-20)
(1.353672790953235 0.4112211081872366 1.833543868082448e-20)
(1.435187471451367 0.891838500380764 0)
(1.486455111566586 1.16771731215474 0)
(0.02068871582049668 -0.5923128372659334 0)
(0.05819065865222665 -0.5976989110051741 0)
(0.09773378565305708 -0.605366612586236 0)
(0.1374322668032446 -0.6167736370953161 0)
(0.1779643030151351 -0.6324455837925986 0)
(0.2196523671677216 -0.6529151993308332 -5.924780909570917e-21)
(0.2630332796058814 -0.67887518723781 -6.304401314668665e-21)
(0.3084551994295938 -0.7114486084474144 0)
(0.3574302256838878 -0.7523727712861241 0)
(0.4095607791623153 -0.8041555551426833 -7.734895453836969e-21)
(0.4672752978329365 -0.8703700341255003 -7.755208632869593e-21)
(0.5279546289824194 -0.9592227445579589 0)
(0.5961594002217091 -1.039412993107317 5.905914102153732e-21)
(0.6711106192424594 -1.074045890704459 1.544056882487354e-20)
(0.7416455887761495 -1.088019061099579 -6.509777888742131e-21)
(0.9193467373867067 -0.9534068582834223 0)
(0.8728475526460708 -0.8096848926323633 0)
(0.7264317672837666 -0.6174644531394871 0)
(0.6178110554281109 -0.3693085516779913 0)
(0.6246834569615322 -0.1056667308445463 -4.366255875733485e-21)
(0.8631360195381618 0.336778229921842 -3.685462167303363e-21)
(1.031238552633948 0.781527693443952 0)
(1.176126864882218 1.068818131205186 0)
(0.01902474268000873 -0.6294715992624105 0)
(0.05376848595239671 -0.634933435749593 0)
(0.090041054063799 -0.6429543795436354 0)
(0.1264178668014226 -0.6550658213567253 0)
(0.1634599873768527 -0.6718788896390717 0)
(0.2013630029733347 -0.6941001693098097 0)
(0.2405226205058488 -0.7226415698236429 0)
(0.2810866490595031 -0.7589357136445797 0)
(0.3235993557577948 -0.8050849197312333 0)
(0.3673254894825702 -0.861947337129805 0)
(0.4163940962686644 -0.9293757778404185 0)
(0.4696720694783752 -1.013781620981851 0)
(0.547240694193887 -1.07823985692205 0)
(0.5996178273287226 -1.161284283721245 0)
(0.82821846487704 -1.184940495394007 0)
(0.7173571678362639 -0.9635581694125056 0)
(0.4239785278512349 -0.6349336860206902 0)
(0.2218266517524774 -0.4387723387336908 0)
(0.1934007859962031 -0.3805782468873314 0)
(0.1731698342549303 -0.2630794976790427 0)
(0.3519901015970519 0.142078865415013 0)
(0.574331871146611 0.6137211990800975 0)
(0.7810810954814038 0.8543882344368432 0)
(0.0176265546859472 -0.6672064873100046 1.487402478185471e-37)
(0.04968525967243065 -0.6725333442952197 0)
(0.08285166554486645 -0.6810752261633822 0)
(0.1160137126812609 -0.6942078579157052 0)
(0.1494879886559866 -0.7124364967799087 0)
(0.1833090110203038 -0.7361756716731721 0)
(0.2180083134380902 -0.7659867486075724 0)
(0.2538727870495632 -0.8027506192941037 0)
(0.2918848089913387 -0.8468906095170291 0)
(0.3328311020018431 -0.9000512031619472 0)
(0.3917056464683446 -0.9629844347798134 0)
(0.4189920771804712 -1.035419270706841 0)
(0.5220069141409683 -1.163857976005927 0)
(0.4099910307979945 -1.407571631784312 0)
(0.6302549288061567 -1.162515397077224 0)
(0.4222113332606049 -0.737385494231105 0)
(0.05667698588426808 -0.4180357387104894 0)
(-0.02836777694366691 -0.4003985973437353 0)
(-0.08656680920137012 -0.3793008251032912 0)
(-0.144562935009112 -0.2771166880973994 0)