# p  POINT_DATA 729
# x y z  p
0.07617391304347826 0.08611018370789648 0 94601.98919805021
0.07607205530008154 0.08618235908210761 0.01448286359509377 94601.13829116624
0.07607205530008154 0.08618235908210761 0.0001171364049062246 94601.13829116624
0.07617391304347826 0.08611018370789648 0.01440029297271911 94601.9891980502
0.07617391304347826 0.08611018370789648 0.0146 94601.9891980502
0.06413680382620388 0.08628474857142855 0.0146 94601.33478012375
0.06413680382620408 0.08628474857142855 0.0007573244001347066 94601.33478012375
0.06413680382620408 0.08628474857142855 0 94601.33478012375
0.07600147214255083 0.08611140744688357 0 94601.99387486736
0.07600147214255083 0.08611140744688357 0.0146 94601.99387486737
0.08886956521739131 0.08592488563101071 0 94602.69156522291
0.0886580157289355 0.08607209469390517 0.01435671808827584 94600.93812934551
0.08865801572893552 0.08607209469390517 0.0002432819117241638 94600.93812934551
0.08886956521739131 0.08592488563101071 0.01418830685279226 94602.69156522291
0.08886956521739132 0.08592488563101071 0.0146 94602.69156522292
0.07627757155894527 0.08618054890914961 0.01448079270721294 94601.12865265695
0.07627757155894527 0.08618054890914961 0.0001192072927870645 94601.12865265693
0.08851416104383976 0.08592748901885097 0 94602.69824648894
0.08851416104383976 0.08592748901885097 0.0146 94602.69824648894
0.1015652173913043 0.08576222454818351 0 94603.34558116067
0.1012555463023909 0.08597346085196858 0.01424387824774956 94600.79251718675
0.1012555463023909 0.08597346085196857 0.0003561217522504426 94600.79251718675
0.1015652173913043 0.08576222454818351 0.014002218079551 94603.34558116068
0.1015652173913043 0.08576222454818351 0.0146 94603.34558116067
0.08908478978420645 0.08606840042988675 0.0143524917481626 94600.92123008211
0.08908478978420643 0.08606840042988677 0.000247508251837394 94600.92123008211
0.1010487868623392 0.08576562202918293 0 94603.34524806504
0.1010487868623392 0.08576562202918293 0.0146 94603.34524806504
0.1142608695652174 0.08565001453578341 0 94603.8922755298
0.1138817606122457 0.08590366048919433 0.01416402470408258 94600.76732429284
0.1138817606122457 0.08590366048919434 0.0004359752959174171 94600.76732429287
0.1142608695652174 0.08565001453578341 0.01387384672489139 94603.89227552978
0.1142608695652174 0.08565001453578341 0.0146 94603.89227552977
0.1018793129457167 0.08596901328865285 0.01423879011242579 94600.77847889171
0.1018793129457167 0.08596901328865286 0.0003612098875742113 94600.77847889171
0.1136322971941632 0.08565289475327728 0 94603.87143051122
0.1136322971941632 0.08565289475327728 0.0146 94603.87143051119
0.1269565217391304 0.08562720613488771 0 94604.23062801181
0.1265611782706179 0.08588734122175165 0.01414535501121065 94600.94735920937
0.1265611782706179 0.08588734122175165 0.0004546449887893468 94600.94735920936
0.1269565217391304 0.08562720613488771 0.01384775328404801 94604.23062801184
0.1269565217391304 0.08562720613488771 0.0146 94604.23062801184
0.114642943672935 0.08590067985492862 0.01416061477612472 94600.77282632441
0.114642943672935 0.08590067985492862 0.0004393852238752807 94600.77282632445
0.1263029019138838 0.08562771653944665 0 94604.17840310563
0.1263029019138838 0.08562771653944665 0.0146 94604.17840310563
0.1396521739130435 0.08573663643496579 0 94604.24734688639
0.1393217498498862 0.08595259953731682 0.01422001232736913 94601.44822318874
0.1393217498498862 0.08595259953731681 0.0003799876726308707 94601.44822318874
0.1396521739130435 0.08573663643496578 0.01397294457100498 94604.24734688638
0.1396521739130435 0.08573663643496578 0.0146 94604.24734688638
0.1273502713317106 0.08588894341847533 0.01414718796853282 94600.98857794827
0.1273502713317106 0.08588894341847533 0.0004528120314671818 94600.98857794827
0.1391042346338281 0.08573394878825223 0 94604.16828490775
0.1391042346338281 0.08573394878825222 0.0146 94604.16828490775
0.1523478260869565 0.08602890842325316 0 94603.774134204
0.1521939661295544 0.08613008539178213 0.01442306104898754 94602.42531678172
0.1521939661295544 0.08613008539178213 0.000176938951012463 94602.42531678172
0.1523478260869565 0.08602890842325316 0.01430731180137045 94603.774134204
0.1523478260869565 0.08602890842325316 0.0146 94603.774134204
0.1399762522025812 0.08595897843889647 0.01422730996703163 94601.52681616954
0.1399762522025812 0.08595897843889647 0.0003726900329683757 94601.52681616956
0.1520901109229455 0.08602568801153991 0 94603.71477944785
0.1520901109229455 0.08602568801153991 0.0146 94603.71477944785
0.1524957154148261 0.08613608719084394 0.01442992727294989 94602.49173310472
0.1524957154148261 0.08613608719084394 0.000170072727050109 94602.49173310472
0.1583256034472688 0.08628474857142857 0.0146 94603.20510616007
0.1583256034472688 0.08628474857142857 0.006874443964359166 94603.20510616008
0.1583256034472688 0.08628474857142857 0 94603.20510616005
0.01269565217391304 0.08664586201462661 0 94601.70118893513
0.01269565217391304 0.08664586201462661 0.0004131237569409197 94601.70118893511
0.01248257631022711 0.08649893679258763 0.0002450372432388182 94601.64351468677
0.01248257631022711 0.08649893679258763 0.01435496275676119 94601.64351468677
0.01269565217391304 0.0866458620146266 0.0146 94601.70118893511
0.0001824918584132959 0.08646819312424366 0.01439013436282471 94601.47794404028
0 0.08659303151797465 0.0146 94601.52708988264
0.000182491858413294 0.08646819312424364 0.0002098656371752882 94601.47794404026
0 0.08659303151797466 0.0003526842090121124 94601.52708988264
0 0.08659303151797466 0 94601.52708988264
0.0003074338865824283 0.08659378740929603 0 94601.52652858198
0.0003074338865824315 0.08659378740929603 0.0146 94601.52652858196
0.02539130434782608 0.08666958856571955 0 94601.82230964929
0.02539130434782608 0.08666958856571955 0.0004402675869793802 94601.82230964929
0.02516192252325696 0.08651532787835137 0.0002637890982544875 94601.75628406501
0.02516192252325696 0.08651532787835137 0.01433621090174551 94601.75628406499
0.02539130434782608 0.08666958856571955 0.0146 94601.82230964932
0.01305531292344323 0.08664628692133833 0 94601.70086098883
0.01291122566248546 0.08650144745626537 0.0002479095118582808 94601.6395138019
0.01291122566248546 0.08650144745626537 0.01435209048814172 94601.63951380191
0.01305531292344323 0.08664628692133833 0.0146 94601.70086098886
0.03808695652173913 0.08658573049196597 0 94601.70665983221
0.03808695652173913 0.08658573049196597 0.0003443316335235595 94601.7066598322
0.03790777181451645 0.086464868708149 0.0002060624133060858 94601.65629301037
0.03790777181451645 0.08646486870814901 0.01439393758669392 94601.65629301034
0.03808695652173913 0.08658573049196597 0.0146 94601.70665983218
0.02577278839667001 0.08666822414866651 0 94601.82339416484
0.02561930314200568 0.08651393762788463 0.0002621986133065451 94601.75859988356
0.02561930314200568 0.08651393762788463 0.01433780138669345 94601.75859988357
0.02577278839667001 0.08666822414866651 0.0146 94601.82339416484
0.05078260869565217 0.08645704022035074 0 94601.5520879422
0.05078260869565217 0.08645704022035074 0.0001971064069559569 94601.5520879422
0.05068041624343332 0.0863874745169111 0.0001175213200516766 94601.52465454588
0.05068041624343331 0.0863874745169111 0.01448247867994832 94601.52465454589
0.05078260869565217 0.08645704022035074 0.0146 94601.5520879422
0.03838478953080125 0.08658413641062322 0 94601.70791595237
0.0382641899889395 0.08646290728172461 0.0002038184872804262 94601.65962608761
0.0382641899889395 0.08646290728172464 0.01439618151271958 94601.65962608758
0.03838478953080123 0.08658413641062324 0.0146 94601.70791595237
0.06347826086956521 0.08629436254282845 0 94601.34680795652
0.06347826086956521 0.08629436254282845 1.099864892503726e-05 94601.34680795652
0.06347258946649163 0.08629044958192685 6.522113534606113e-06 94601.34538032817
0.06347258946649163 0.08629044958192683 0.01459347788646539 94601.34538032816
0.06347826086956521 0.08629436254282843 0.0146 94601.34680795652
0.05095287964792673 0.08645590841915544 0 94601.55293262351
0.05088334072098279 0.08638600646589907 0.0001158418291302239 94601.5270626227
0.0508833407209828 0.08638600646589908 0.01448415817086978 94601.5270626227
0.05095287964792674 0.08645590841915544 0.0146 94601.55293262351
0.06348775450463957 0.08629429176779878 0 94601.34685695119
0.06348383716973363 0.08629035398253923 6.412745193691486e-06 94601.34553024385
0.06348775450463957 0.08629429176779879 0.0146 94601.34685695119
0.06348383716973363 0.08629035398253923 0.01459358725480631 94601.34553024384
0.1650434782608695 0.08657183632388774 0 94604.04109824986
0.1650434782608695 0.08657183632388774 0.0003284363213324305 94604.04109824984
0.1648793418170388 0.08644974188565621 0.0001887569104052343 94603.99665127875
0.1648793418170389 0.08644974188565621 0.01441124308959476 94603.99665127878
0.1650434782608695 0.08657183632388772 0.0146 94604.04109824987
0.1777391304347826 0.0873821361105153 0 94606.3560504309
0.1777391304347826 0.0873821361105153 0.001255441666620605 94606.3560504309
0.1771013809357746 0.08692582742651167 0.0007334119238592116 94606.11219191297
0.1771013809357746 0.08692582742651166 0.01386658807614078 94606.11219191299
0.1777391304347826 0.08738213611051532 0.0146 94606.35605043094
0.165339560145727 0.08658237614471638 0 94604.02885052157
0.1652184653514878 0.08646064917798708 0.0002012351542110495 94603.9720548098
0.1652184653514878 0.08646064917798708 0.01439876484578895 94603.97205480983
0.165339560145727 0.08658237614471638 0.0146 94604.02885052159
0.1904347826086956 0.08843289109055635 0 94609.18281923655
0.1904347826086956 0.08843289109055635 0.002457534397189146 94609.18281923655
0.1891465634572324 0.08757969284030015 0.001481452024182746 94608.41551852207
0.1891465634572324 0.08757969284030015 0.01311854797581725 94608.41551852207
0.1904347826086956 0.08843289109055635 0.0146 94609.18281923655
0.178891329913761 0.08744296308035367 0 94606.26933293452
0.1784472820245841 0.08699659704974391 0.0008143743282717354 94605.91419521224
0.1784472820245841 0.0869965970497439 0.01378562567172826 94605.91419521224
0.178891329913761 0.08744296308035367 0.0146 94606.26933293455
0.2031304347826087 0.08979323707262243 0 94611.85285902428
0.2031304347826087 0.08979323707262243 0.004013807788380579 94611.85285902426
0.2009363752460931 0.08849026214351503 0.00252316846699295 94609.76866123594
0.2009363752460931 0.08849026214351503 0.01207683153300705 94609.76866123594
0.2031304347826087 0.08979323707262243 0.0146 94611.85285902426
0.1927544584716978 0.08861653424704316 0 94608.85014559384
0.1919422962633968 0.08780013216527095 0.001733640702906377 94607.61934511339
0.1919422962633968 0.08780013216527095 0.01286635929709362 94607.61934511339
0.1927544584716978 0.08861653424704316 0.0146 94608.85014559382
0.2158260869565218 0.09168751338762847 0 94613.2785762951
0.2158260869565218 0.09168751338762847 0.006180912233479589 94613.27857629512
0.2122470675665443 0.08988245214691667 0.007300000000000002 94607.61895049001
0.2158260869565218 0.09168751338762848 0.0146 94613.27857629511
0.2071807027400029 0.09035616085625939 0 94610.61078207256
0.2059997443344577 0.08916903728547612 0.003299705984626392 94606.59443641633
0.2059997443344577 0.08916903728547612 0.01130029401537361 94606.59443641634
0.2071807027400029 0.09035616085625939 0.0146 94610.61078207257
0.2285217391304348 0.09445261150506506 0 94610.82517016894
0.2222300009409161 0.09290793083247331 0.007321500360684508 94591.48911520273
0.2285217391304348 0.09445261150506505 0.009344260882228709 94610.82517016896
0.2285217391304348 0.09445261150506505 0.0146 94610.82517016897
0.2227548978549961 0.09324973116222668 0 94609.44746878192
0.2227548978549961 0.09324973116222667 0.0146 94609.44746878192
0.2412173913043479 0.09828138778562399 0 94600.19518767409
0.2405678114747257 0.09839370714958157 0.01385298319593449 94596.60931199114
0.2405678114747257 0.09839370714958157 0.0007470168040655094 94596.60931199114
0.2412173913043479 0.09828138778562399 0.01372448674007166 94600.19518767412
0.2412173913043479 0.09828138778562399 0.0146 94600.19518767412
0.2312172581161168 0.09633708721687034 0.0115001531664657 94594.68801484013
0.2312172581161168 0.09633708721687034 0.0030998468335343 94594.6880148401
0.2402025931883959 0.09802658224988359 0 94600.24044845496
0.2402025931883959 0.0980265822498836 0.0146 94600.24044845496
0.2415704507527077 0.0986917755084343 0.01419398163438622 94597.11073409359
0.2415704507527077 0.0986917755084343 0.000406018365613781 94597.11073409357
0.2436870713445269 0.09904667809523809 0.0146 94597.61562578971
0.2436870713445269 0.09904667809523809 0.002840132046205888 94597.61562578971
0.2436870713445269 0.09904667809523812 0 94597.61562578971
0.2539130434782608 0.101965828017454 0 94599.50585174399
0.2539130434782608 0.101965828017454 0.003339588170020728 94599.505851744
0.252376985204958 0.1005907553241838 0.001766467014298192 94599.35973860955
0.252376985204958 0.1005907553241838 0.0128335329857018 94599.35973860954
0.2539130434782608 0.101965828017454 0.0146 94599.50585174398
0.2666086956521739 0.1051596854207482 0 94597.64324902854
0.2666086956521739 0.1051596854207482 0.006993449288834944 94597.64324902854
0.2628243261628687 0.1028508037953582 0.007300000000000002 94596.20905854639
0.2666086956521739 0.1051596854207482 0.0146 94597.64324902854
0.2577640769894374 0.1029178158351685 0 94598.24189208733
0.2565249569760518 0.1016722270252559 0.003003700522459706 94597.15911916207
0.2565249569760519 0.1016722270252559 0.01159629947754029 94597.15911916207
0.2577640769894374 0.1029178158351685 0.0146 94598.24189208733
0.2793043478260869 0.1090512507921683 0 94588.96054038641
0.276225736462877 0.1087139244385163 0.01105959693230857 94586.12849913466
0.276225736462877 0.1087139244385163 0.003540403067691426 94586.12849913465
0.2793043478260869 0.1090512507921683 0.01144550760154796 94588.96054038641
0.2793043478260869 0.1090512507921683 0.0146 94588.96054038641
0.2710959210627834 0.1072979567550207 0.007299999999999998 94587.10226979826
0.2755197964756202 0.1080042991083642 0 94591.80636000623
0.2755197964756202 0.1080042991083642 0.0146 94591.80636000623
0.280714999305969 0.1103905918667017 0.01297775079813557 94584.21565237117
0.280714999305969 0.1103905918667017 0.001622249201864432 94584.21565237119
0.2878791738601906 0.1118086076190476 0.0146 94581.85938694511
0.2878791738601906 0.1118086076190476 0.009861049939219206 94581.8593869451
0.2878791738601906 0.1118086076190476 0 94581.85938694511
0.292 0.1131421329749904 0 94580.93467276002
0.292 0.1131421329749904 0.001525589853825884 94580.93467276002
0.2912917280245126 0.1125205771115194 0.0008145127718105427 94581.0053323644
0.2912917280245126 0.1125205771115194 0.01378548722818946 94581.00533236438
0.292 0.1131421329749904 0.0146 94580.93467276002
0.31599948 0.04799895999999999 0 94469.42320966598
0.31599948 0.04799895999999999 0.0146 94469.423209666
0.2979998699999999 0.1151517745294441 0 94578.21285583849
0.2979998699999999 0.1151517745294441 0.003824675320508977 94578.21285583849
0.2970430368313408 0.1138438246261612 0.002328344491201078 94579.10823608091
0.2970430368313408 0.1138438246261612 0.01227165550879892 94579.10823608091
0.2979998699999999 0.1151517745294441 0.0146 94578.21285583847
0.2926980487521058 0.11329338128557 0 94581.03560127926
0.2924440082827354 0.1127530284835424 0.001080443564266634 94581.34995211994
0.2924440082827354 0.1127530284835424 0.01351955643573336 94581.34995211993
0.2926980487521058 0.11329338128557 0.0146 94581.03560127925
0.3039997400000001 0.1162735773021564 0 94576.88778829052
0.3039997400000001 0.1162735773021564 0.005108048689014284 94576.88778829051
0.3025583502650572 0.1148744930821796 0.003507457683277242 94579.3449444055
0.3025583502650572 0.1148744930821796 0.01109254231672276 94579.34494440551
0.30399974 0.1162735773021563 0.0146 94576.88778829051
0.299715652284056 0.1154581354567049 0 94578.53326259504
0.2992228889954147 0.1144100110204152 0.002976077370518953 94580.33767547362
0.2992228889954147 0.1144100110204152 0.01162392262948105 94580.33767547361
0.299715652284056 0.1154581354567049 0.0146 94578.53326259504
0.30999961 0.1174551282678845 0 94575.67006223882
0.30999961 0.1174551282678845 0.006459775641231533 94575.67006223882
0.3069193360789109 0.1158817708016674 0.007234834796537228 94581.39807530782
0.30999961 0.1174551282678845 0.0146 94575.67006223883
0.3063165634607141 0.1167365706790376 0 94577.25552596842
0.3063165634607141 0.1167365706790376 0.0146 94577.25552596842
0.31599948 0.1194772199964392 0 94574.4316229136
0.31599948 0.1194772199964392 0.008773104451096808 94574.4316229136
0.3129895419094978 0.1180377037603934 0.007291886206349354 94585.52228260061
0.31599948 0.1194772199964391 0.0146 94574.4316229136
0.3131798007898604 0.1185729826359173 0 94576.14625006565
0.3131798007898604 0.1185729826359173 0.0146 94576.14625006565
0.3180707248463316 0.05888690609141425 0.01245611117332014 94448.46748079402
0.3214526009074719 0.06076088952380952 0.0146 94444.14348902833
0.3180707248463316 0.05888690609141425 0.002143888826679857 94448.46748079403
0.3214526009074719 0.06076088952380952 0.00564437613678029 94444.14348902834
0.3214526009074719 0.06076088952380952 0 94444.14348902833
0.3301047705263158 0.07026084942099989 0 94424.13787006636
0.3255314335718182 0.06489867057787874 0.007299999999999997 94416.84170976272
0.3301047705263158 0.07026084942099989 0.01086821661569375 94424.13787006635
0.3301047705263158 0.07026084942099989 0.0146 94424.13787006635
0.3314547786462706 0.07230138312956473 0.0132026435602608 94424.6175497763
0.3369153565963323 0.07352281904761904 0.0146 94419.27768903031
0.3314547786462706 0.07230138312956472 0.001397356439739207 94424.6175497763
0.3369153565963323 0.07352281904761904 0.007049451157119377 94419.27768903031
0.3369153565963323 0.07352281904761904 0 94419.27768903032
0.3724206421052631 0.07231329448223611 0 94418.79909636773
0.3715791727104024 0.07276148959512609 0.0008709819299393143 94418.41277828527
0.3715791727104024 0.07276148959512609 0.01372901807006069 94418.41277828526
0.3724206421052631 0.07231329448223613 0.01321627047683936 94418.79909636773
0.3724206421052631 0.07231329448223611 0.0146 94418.79909636773
0.3648643657730668 0.07352281904761904 0.0146 94417.99073833261
0.3648643657730668 0.07352281904761904 0.006778705270604535 94417.99073833261
0.3648643657730668 0.07352281904761904 0 94417.99073833262
0.3711843568124528 0.07240427521126688 0 94418.93556939698
0.3711843568124528 0.07240427521126688 0.0146 94418.93556939697
0.3732568383803239 0.07276626051304019 0.01373447613197963 94418.4043619108
0.3793061025020599 0.07352281904761904 0.0146 94416.31572906444
0.3732568383803239 0.07276626051304019 0.0008655238680203714 94418.40436191081
0.3793061025020599 0.07352281904761904 0.007126951522599362 94416.31572906446
0.3793061025020599 0.07352281904761905 0 94416.31572906446
0.4570523852631578 0.06882255063481557 0 94413.71569851173
0.454156775881375 0.07090298198791084 0.002997165985000808 94412.88415129328
0.454156775881375 0.07090298198791084 0.01160283401499918 94412.88415129328
0.4570523852631578 0.06882255063481557 0.009222763062677847 94413.71569851173
0.4570523852631578 0.06882255063481557 0.0146 94413.71569851173
0.4453927584982589 0.07352281904761905 0.0146 94411.21087014741
0.4453927584982589 0.07352281904761905 0.002531439593538991 94411.21087014736
0.4453927584982589 0.07352281904761905 0 94411.21087014736
0.4529682983259558 0.06982769277110287 0 94415.53508953433
0.4529682983259558 0.06982769277110287 0.0146 94415.53508953431
0.4711576757894737 0.06681199526798645 0 94412.94044344053
0.4648722220213731 0.06644772864732906 0.006505901090307938 94399.46078641122
0.4711576757894738 0.06681199526798645 0.006922632169387763 94412.94044344053
0.4648722220213731 0.06644772864732906 0.008094098909692062 94399.46078641122
0.4711576757894737 0.06681199526798645 0.0146 94412.94044344054
0.4634991262065579 0.06659365513926672 0.006672845029178233 94399.45774286022
0.4646605789562891 0.06764449334140439 0 94414.77862761253
0.4634991262065579 0.06659365513926672 0.007927154970821767 94399.45774286022
0.4646605789562891 0.06764449334140439 0.0146 94414.77862761253
0.4852629663157895 0.06859877325084915 0 94414.74006641615
0.4787682989756117 0.0666370171173037 0.006722452330186935 94399.55272940891
0.4852629663157895 0.06859877325084915 0.008966755552229335 94414.74006641618
0.4787682989756117 0.0666370171173037 0.007877547669813068 94399.55272940888
0.4852629663157895 0.06859877325084915 0.0146 94414.74006641618
0.4775246339244638 0.06652147069356247 0.006590264028764756 94399.54569212499
0.4790486945606722 0.06790038269775098 0 94413.35491776688
0.4775246339244638 0.06652147069356247 0.008009735971235245 94399.54569212499
0.4790486945606722 0.06790038269775098 0.0146 94413.35491776689
0.4993682568421052 0.07300193777144781 0 94409.71925352036
0.4988096312727863 0.07301739591347345 0.0005782180308047147 94409.32901067637
0.4988096312727864 0.07301739591347345 0.01402178196919529 94409.32901067636
0.4993682568421052 0.07300193777144781 0.01400409742759417 94409.71925352034
0.4993682568421052 0.07300193777144781 0.0146 94409.71925352035
0.4885698020677979 0.07053092003389715 0.01117718485916695 94412.69296187922
0.4885698020677979 0.07053092003389713 0.003422815140833048 94412.69296187922
0.4985545989011433 0.07278665233912977 0 94409.55643010983
0.4985545989011433 0.07278665233912976 0.0146 94409.55643010981
0.4996178501960399 0.07329699648929715 0.01434165275357864 94409.75980515174
0.5020132546688633 0.07352281904761904 0.0146 94408.16202888252
0.4996178501960399 0.07329699648929715 0.0002583472464213684 94409.75980515174
0.5020132546688633 0.07352281904761905 0.002737764826511107 94408.16202888252
0.5020132546688633 0.07352281904761905 0 94408.16202888251
0.3442100610526315 0.07661747156048684 0 94420.19379127107
0.3417942179815958 0.07570858182617522 0.002500573013460303 94408.19595752911
0.3442100610526315 0.07661747156048684 0.003540367983037017 94420.19379127107
0.3417942179815958 0.07570858182617522 0.0120994269865397 94408.1959575291
0.3442100610526315 0.07661747156048684 0.0146 94420.19379127107
0.3583153515789473 0.07458539055767231 0 94419.86388366502
0.3573515557961603 0.07439482475585488 0.0009975986246038124 94416.16801243422
0.3583153515789473 0.07458539055767231 0.001215611167404959 94419.86388366501
0.3573515557961603 0.07439482475585488 0.01360240137539619 94416.16801243422
0.3583153515789473 0.07458539055767233 0.0146 94419.86388366502
0.346556078868105 0.0756454065949522 0.002428298803346911 94411.55254222486
0.3473470175910891 0.07636101782050923 0 94420.66197841651
0.346556078868105 0.0756454065949522 0.01217170119665309 94411.55254222485
0.3473470175910891 0.07636101782050923 0.0146 94420.66197841649
0.3589162149266443 0.07406645731458301 0.0006219371986709465 94417.81189810582
0.3593860425602249 0.07449153945925113 0 94419.79522503745
0.3589162149266443 0.07406645731458301 0.01397806280132905 94417.81189810581
0.3593860425602249 0.07449153945925113 0.0146 94419.79522503745
0.3865259326315789 0.07479570429953737 0 94416.15850356793
0.3858254973640614 0.07415654619442064 0.0007250013664502103 94414.41086788721
0.3865259326315789 0.07479570429953736 0.001456215899275702 94416.15850356792
0.3858254973640614 0.07415654619442064 0.01387499863354979 94414.4108678872
0.3865259326315789 0.07479570429953736 0.0146 94416.1585035679
0.4006312231578947 0.07897817357998428 0 94416.5905352324
0.3971152804059789 0.07670391010887623 0.003639256070777211 94403.98486555229
0.4006312231578947 0.07897817357998427 0.006241076321878695 94416.5905352324
0.3971152804059789 0.07670391010887623 0.01096074392922279 94403.98486555228
0.4006312231578947 0.07897817357998427 0.0146 94416.59053523242
0.3877569802045129 0.07463662399455932 0.001274223634834317 94410.91578199099
0.3884590823237367 0.07527185924528559 0 94415.27215200222
0.3877569802045129 0.07463662399455932 0.01332577636516568 94410.91578199099
0.3884590823237367 0.07527185924528559 0.0146 94415.2721520022
0.4147365136842105 0.08089924705493622 0 94417.64535696329
0.4095428344717935 0.08158570547447981 0.005375835142127664 94407.53528608946
0.4095428344717935 0.08158570547447981 0.009224164857872334 94407.53528608949
0.4147365136842105 0.08089924705493622 0.008438837458387945 94417.6453569633
0.4147365136842105 0.08089924705493622 0.0146 94417.6453569633
0.4062034666445624 0.08124319494063389 0.008832323343247067 94407.02015024661
0.4062034666445625 0.08124319494063389 0.005767676656752931 94407.02015024661
0.4077046218658523 0.07992256073577114 0 94416.33359730948
0.4077046218658523 0.07992256073577114 0.0146 94416.33359730949
0.4288418042105263 0.07935655576722669 0 94416.3017221701
0.4232863177693932 0.08125835607706997 0.005750331897752793 94407.50507377928
0.4232863177693932 0.08125835607706998 0.008849668102247202 94407.50507377929
0.4288418042105263 0.07935655576722669 0.006673955999158908 94416.30172217012
0.4288418042105263 0.07935655576722669 0.0146 94416.30172217012
0.4199681891211984 0.08155132793796338 0.009184836006212156 94407.89640578895
0.4199681891211984 0.08155132793796338 0.005415163993787841 94407.89640578894
0.421996181435591 0.08009108987029667 0 94418.1595233353
0.421996181435591 0.08009108987029667 0.0146 94418.15952333531
0.442947094736842 0.07461376575255285 0 94412.68775001097
0.441616483438216 0.07472670546066162 0.001377279321095537 94407.66446083625
0.442947094736842 0.07461376575255285 0.001248073174383034 94412.68775001095
0.4416164834382161 0.07472670546066161 0.01322272067890447 94407.66446083628
0.442947094736842 0.07461376575255284 0.0146 94412.68775001101
0.4329694549141898 0.07725736016045745 0.007299999999999999 94401.57185051018
0.4339470591362271 0.07814185921849118 0 94419.55963628966
0.4339470591362272 0.07814185921849118 0.0146 94419.55963628966
0.4434955133907419 0.0740190073535285 0.0005676531321351127 94410.90035686933
0.4439586334794859 0.074438020767154 0 94413.71434599644
0.4434955133907419 0.0740190073535285 0.01403234686786489 94410.90035686934
0.4439586334794859 0.074438020767154 0.0146 94413.71434599649
0.513473547368421 0.07553719886904449 0 94408.65950422471
0.5121598064715913 0.07471144176379825 0.001359817230132785 94399.97027333052
0.513473547368421 0.07553719886904449 0.002304506175021755 94408.65950422471
0.5121598064715913 0.07471144176379825 0.01324018276986721 94399.9702733305
0.513473547368421 0.07553719886904449 0.0146 94408.65950422472
0.5275788378947368 0.07695755523430976 0 94418.06978849562
0.5255610431972501 0.07534844282153562 0.002088564041154939 94399.3581142622
0.5275788378947368 0.07695755523430976 0.003929433102739424 94418.06978849562
0.5255610431972501 0.07534844282153562 0.01251143595884506 94399.3581142622
0.5275788378947368 0.07695755523430976 0.0146 94418.0697884956
0.5148165176958915 0.07473788743913996 0.001390071813443938 94399.38001724686
0.5159802943764139 0.0757908282453269 0 94411.73596759983
0.5148165176958915 0.07473788743913996 0.01320992818655606 94399.38001724686
0.5159802943764139 0.0757908282453269 0.0146 94411.73596759983
0.5416841284210526 0.08112078317817781 0 94439.15623746198
0.5366826100645116 0.0780480023225847 0.005176934701859795 94401.54019417915
0.5416841284210526 0.08112078317817781 0.008692280904638985 94439.15623746198
0.5366826100645115 0.0780480023225847 0.009423065298140198 94401.54019417915
0.5416841284210525 0.08112078317817781 0.0146 94439.15623746198
0.5312896611936955 0.07688023060381978 0.003840971588902693 94401.07522195455
0.5332379773109858 0.07864299280517764 0 94426.30159152826
0.5312896611936955 0.07688023060381978 0.0107590284110973 94401.07522195454
0.5332379773109859 0.07864299280517766 0.0146 94426.30159152826
0.5444817575682607 0.08375356029538319 0.01170425067296321 94439.00050434466
0.552451615715546 0.08628474857142857 0.0146 94443.25465296312
0.5444817575682607 0.08375356029538319 0.002895749327036795 94439.00050434467
0.552451615715546 0.08628474857142857 0.01114513126874706 94443.25465296312
0.5524516157155459 0.08628474857142857 0 94443.25465296312
0.5557894189473682 0.08806054273323995 0 94466.60597220271
0.5549874761006459 0.08701031590893936 0.0008300690822570407 94445.0146039808
0.5557894189473682 0.08806054273323995 0.002031557588065018 94466.60597220271
0.5549874761006459 0.08701031590893936 0.01376993091774296 94445.01460398082
0.5557894189473683 0.08806054273323995 0.0146 94466.60597220273
0.5698947094736843 0.0950717521479842 0 94612.61939639409
0.5640848209397562 0.09154131438783973 0.0073 94427.98981907585
0.5698947094736841 0.0950717521479842 0.01005257488519784 94612.61939639409
0.5698947094736841 0.0950717521479842 0.0146 94612.61939639409
0.559267290385388 0.08943139415820822 0.003599849496212314 94433.84753139134
0.5602338123638256 0.09030586642441372 0 94520.39549297081
0.5592672903853879 0.08943139415820822 0.01100015050378768 94433.84753139135
0.5602338123638257 0.09030586642441374 0.0146 94520.39549297083
0.572276114927712 0.09689207316064152 0.01213507242095164 94604.71303293739
0.583415542418727 0.09904667809523811 0.0146 94742.48202990736
0.572276114927712 0.09689207316064152 0.002464927579048362 94604.71303293739
0.583415542418727 0.09904667809523811 0.01399504396094033 94742.48202990736
0.583415542418727 0.09904667809523811 0 94742.48202990736
0.584 0.09929424488884959 0 94754.40512227133
0.5838410793594931 0.09919046343664911 0.0001644944035056747 94751.67590204006
0.584 0.09929424488884959 0.0002832232524074213 94754.40512227133
0.583841079359493 0.0991904634366491 0.01443550559649433 94751.67590204008
0.584 0.09929424488884958 0.0146 94754.40512227135
0.3301047705263158 0.1220492027727131 0 94574.67545305012
0.3278773041108399 0.122555210385998 0.01229441050467739 94580.19090601979
0.3278773041108399 0.122555210385998 0.00230558949532261 94580.19090601979