# U  POINT_DATA 729
# x y z  U_x U_y U_z
0.07617391304347826 0.08611018370789648 0 0.2674475581468092 -0.2729334884141868 7.469806133939008e-25
0.07607205530008154 0.08618235908210761 0.01448286359509377 0.2671327010286415 -0.2733104909468809 2.453572295730385e-38
0.07607205530008154 0.08618235908210761 0.0001171364049062246 0.2671327010286415 -0.2733104909468809 2.453572295730385e-38
0.07617391304347826 0.08611018370789648 0.01440029297271911 0.2674475581468092 -0.2729334884141867 7.469806133939008e-25
0.07617391304347826 0.08611018370789648 0.0146 0.2674475581468092 -0.2729334884141868 7.469806133938929e-25
0.06413680382620388 0.08628474857142855 0.0146 0.2263159841659321 -0.2807041540169963 0
0.06413680382620408 0.08628474857142855 0.0007573244001347066 0.2263159841659328 -0.2807041540169962 0
0.06413680382620408 0.08628474857142855 0 0.2263159841659328 -0.2807041540169962 0
0.07600147214255083 0.08611140744688357 0 0.2668689834759332 -0.2730333407421439 0
0.07600147214255083 0.08611140744688357 0.0146 0.2668689834759332 -0.2730333407421439 -1.061004235991518e-38
0.08886956521739131 0.08592488563101071 0 0.3102133672691499 -0.2627469208020776 3.111138350100046e-24
0.0886580157289355 0.08607209469390517 0.01435671808827584 0.3095866974682718 -0.2635512527922605 0
0.08865801572893552 0.08607209469390517 0.0002432819117241638 0.3095866974682718 -0.2635512527922605 -3.827884220818579e-38
0.08886956521739131 0.08592488563101071 0.01418830685279226 0.3102133672691499 -0.2627469208020776 3.111138350100046e-24
0.08886956521739132 0.08592488563101071 0.0146 0.3102133672691499 -0.2627469208020776 3.111138350100113e-24
0.07627757155894527 0.08618054890914961 0.01448079270721294 0.2678255662777848 -0.2731741279527893 0
0.07627757155894527 0.08618054890914961 0.0001192072927870645 0.2678255662777847 -0.2731741279527893 0
0.08851416104383976 0.08592748901885097 0 0.3090434289895157 -0.2630056873544303 1.528749568072202e-24
0.08851416104383976 0.08592748901885097 0.0146 0.3090434289895157 -0.2630056873544304 1.528749568072231e-24
0.1015652173913043 0.08576222454818351 0 0.3521330414165287 -0.2502344346044509 2.281466247505395e-24
0.1012555463023909 0.08597346085196858 0.01424387824774956 0.3512671349959355 -0.251452133975003 -4.581764104590224e-38
0.1012555463023909 0.08597346085196857 0.0003561217522504426 0.3512671349959354 -0.2514521339750029 1.488590025541971e-38
0.1015652173913043 0.08576222454818351 0.014002218079551 0.3521330414165287 -0.250234434604451 2.281466247505395e-24
0.1015652173913043 0.08576222454818351 0.0146 0.3521330414165287 -0.250234434604451 2.28146624750539e-24
0.08908478978420645 0.08606840042988675 0.0143524917481626 0.3109996077757137 -0.2631984406055072 0
0.08908478978420643 0.08606840042988677 0.000247508251837394 0.3109996077757137 -0.2631984406055073 0
0.1010487868623392 0.08576562202918293 0 0.3504760810624813 -0.2507006867982233 4.488026725563579e-24
0.1010487868623392 0.08576562202918293 0.0146 0.3504760810624813 -0.2507006867982233 4.488026725563585e-24
0.1142608695652174 0.08565001453578341 0 0.3929275099396667 -0.2349923550449248 2.928774497361819e-24
0.1138817606122457 0.08590366048919433 0.01416402470408258 0.3919484479498921 -0.2365475388944649 8.580646912463855e-39
0.1138817606122457 0.08590366048919434 0.0004359752959174171 0.3919484479498923 -0.236547538894465 8.989249146390704e-39
0.1142608695652174 0.08565001453578341 0.01387384672489139 0.3929275099396667 -0.2349923550449247 2.928774497361819e-24
0.1142608695652174 0.08565001453578341 0.0146 0.3929275099396667 -0.2349923550449247 2.928774497361816e-24
0.1018793129457167 0.08596901328865285 0.01423879011242579 0.3532823178311698 -0.2508163627705257 0
0.1018793129457167 0.08596901328865286 0.0003612098875742113 0.3532823178311698 -0.2508163627705258 0
0.1136322971941632 0.08565289475327728 0 0.3909786341907052 -0.2356888861643832 2.758826571297372e-24
0.1136322971941632 0.08565289475327728 0.0146 0.3909786341907052 -0.2356888861643832 2.758826571297375e-24
0.1269565217391304 0.08562720613488771 0 0.4322538135014774 -0.2165557744822587 6.165752125122328e-24
0.1265611782706179 0.08588734122175165 0.01414535501121065 0.4313415264398853 -0.218263168089789 0
0.1265611782706179 0.08588734122175165 0.0004546449887893468 0.4313415264398853 -0.218263168089789 0
0.1269565217391304 0.08562720613488771 0.01384775328404801 0.4322538135014774 -0.2165557744822588 6.165752125122328e-24
0.1269565217391304 0.08562720613488771 0.0146 0.4322538135014775 -0.2165557744822588 6.165752125122334e-24
0.114642943672935 0.08590067985492862 0.01416061477612472 0.3943277448178137 -0.2355977919627072 0
0.114642943672935 0.08590067985492862 0.0004393852238752807 0.3943277448178137 -0.2355977919627072 0
0.1263029019138838 0.08562771653944665 0 0.4303182577557783 -0.2174368812089839 3.031661374929263e-24
0.1263029019138838 0.08562771653944665 0.0146 0.4303182577557784 -0.217436881208984 3.031661374929292e-24
0.1396521739130435 0.08573663643496579 0 0.4697636655527686 -0.1943726144773168 1.264116446340612e-24
0.1393217498498862 0.08595259953731682 0.01422001232736913 0.4691169142123164 -0.1958901284302326 -1.827878344194547e-38
0.1393217498498862 0.08595259953731681 0.0003799876726308707 0.4691169142123164 -0.1958901284302325 1.378567466291977e-38
0.1396521739130435 0.08573663643496578 0.01397294457100498 0.4697636655527685 -0.1943726144773168 1.26411644634058e-24
0.1396521739130435 0.08573663643496578 0.0146 0.4697636655527685 -0.1943726144773168 1.264116446340584e-24
0.1273502713317106 0.08588894341847533 0.01414718796853282 0.4336991509740201 -0.217065829109813 0
0.1273502713317106 0.08588894341847533 0.0004528120314671818 0.4336991509740201 -0.217065829109813 0
0.1391042346338281 0.08573394878825223 0 0.4682384911990469 -0.195264206450111 5.164830047323316e-24
0.1391042346338281 0.08573394878825222 0.0146 0.4682384911990469 -0.1952642064501111 5.164830047323433e-24
0.1523478260869565 0.08602890842325316 0 0.505121782993094 -0.1678017564650724 -1.271445532833892e-24
0.1521939661295544 0.08613008539178213 0.01442306104898754 0.5048882974080221 -0.1685579281739466 -7.019340965400288e-38
0.1521939661295544 0.08613008539178213 0.000176938951012463 0.5048882974080221 -0.1685579281739466 -7.019340965400288e-38
0.1523478260869565 0.08602890842325316 0.01430731180137045 0.505121782993094 -0.1678017564650724 -1.271445532833892e-24
0.1523478260869565 0.08602890842325316 0.0146 0.505121782993094 -0.1678017564650724 -1.271445532833901e-24
0.1399762522025812 0.08595897843889647 0.01422730996703163 0.4709548488521507 -0.1946868278106231 0
0.1399762522025812 0.08595897843889647 0.0003726900329683757 0.4709548488521505 -0.1946868278106232 0
0.1520901109229455 0.08602568801153991 0 0.5044622694354466 -0.1683039467806995 5.974739338318045e-25
0.1520901109229455 0.08602568801153991 0.0146 0.5044622694354466 -0.1683039467806995 5.974739338317998e-25
0.1524957154148261 0.08613608719084394 0.01442992727294989 0.5056648856807537 -0.1678884893444877 0
0.1524957154148261 0.08613608719084394 0.000170072727050109 0.5056648856807537 -0.1678884893444877 0
0.1583256034472688 0.08628474857142857 0.0146 0.5206026617968702 -0.1529258912710075 0
0.1583256034472688 0.08628474857142857 0.006874443964359166 0.5206026617968702 -0.1529258912710075 0
0.1583256034472688 0.08628474857142857 0 0.5206026617968702 -0.1529258912710074 0
0.01269565217391304 0.08664586201462661 0 0.04753040916966023 -0.2968726474222669 0
0.01269565217391304 0.08664586201462661 0.0004131237569409197 0.04753040916966022 -0.2968726474222668 0
0.01248257631022711 0.08649893679258763 0.0002450372432388182 0.04704569988043404 -0.2963343534575655 0
0.01248257631022711 0.08649893679258763 0.01435496275676119 0.04704569988043404 -0.2963343534575655 0
0.01269565217391304 0.0866458620146266 0.0146 0.04753040916966021 -0.2968726474222667 0
0.0001824918584132959 0.08646819312424366 0.01439013436282471 0.0008244406579125978 -0.00905653735070194 0
0 0.08659303151797465 0.0146 0 0 0
0.000182491858413294 0.08646819312424364 0.0002098656371752882 0.0008244406579125896 -0.009056537350701849 0
0 0.08659303151797466 0.0003526842090121124 0 0 0
0 0.08659303151797466 0 0 0 0
0.0003074338865824283 0.08659378740929603 0 0.001023527755340627 -0.008176420119540381 0
0.0003074338865824315 0.08659378740929603 0.0146 0.001023527755340637 -0.008176420119540451 0
0.02539130434782608 0.08666958856571955 0 0.08992403640768964 -0.2952778653321308 2.941518717370895e-22
0.02539130434782608 0.08666958856571955 0.0004402675869793802 0.08992403640768963 -0.2952778653321308 2.941518717370896e-22
0.02516192252325696 0.08651532787835137 0.0002637890982544875 0.08940125514888518 -0.294701996025595 2.819467313813781e-22
0.02516192252325696 0.08651532787835137 0.01433621090174551 0.08940125514888519 -0.294701996025595 2.819467313813782e-22
0.02539130434782608 0.08666958856571955 0.0146 0.08992403640768966 -0.2952778653321308 2.941518717370895e-22
0.01305531292344323 0.08664628692133833 0 0.04860863362488838 -0.2968188722998216 9.822746986898642e-24
0.01291122566248546 0.08650144745626537 0.0002479095118582808 0.04835674270944443 -0.2962687391660884 0
0.01291122566248546 0.08650144745626537 0.01435209048814172 0.04835674270944441 -0.2962687391660883 -9.358833902970306e-38
0.01305531292344323 0.08664628692133833 0.0146 0.04860863362488833 -0.2968188722998215 9.822746986898391e-24
0.03808695652173913 0.08658573049196597 0 0.135513485819736 -0.2924006020814314 5.972646859729434e-22
0.03808695652173913 0.08658573049196597 0.0003443316335235595 0.135513485819736 -0.2924006020814313 5.972646859729432e-22
0.03790777181451645 0.086464868708149 0.0002060624133060858 0.135162921890232 -0.2919576538572837 6.018853701685356e-22
0.03790777181451645 0.08646486870814901 0.01439393758669392 0.135162921890232 -0.2919576538572836 6.018853701685355e-22
0.03808695652173913 0.08658573049196597 0.0146 0.135513485819736 -0.2924006020814313 5.972646859729433e-22
0.02577278839667001 0.08666822414866651 0 0.09125491154179327 -0.2952193032752056 3.052456511774111e-22
0.02561930314200568 0.08651393762788463 0.0002621986133065451 0.09107665629369381 -0.29463862956253 3.128921365814754e-22
0.02561930314200568 0.08651393762788463 0.01433780138669345 0.09107665629369384 -0.2946386295625301 3.128921365814754e-22
0.02577278839667001 0.08666822414866651 0.0146 0.09125491154179327 -0.2952193032752055 3.05245651177411e-22
0.05078260869565217 0.08645704022035074 0 0.1800168814424353 -0.2875828923850759 3.02788267477012e-22
0.05078260869565217 0.08645704022035074 0.0001971064069559569 0.1800168814424353 -0.2875828923850759 3.02788267477012e-22
0.05068041624343332 0.0863874745169111 0.0001175213200516766 0.1798438037049438 -0.2873418420885989 3.113805491277943e-22
0.05068041624343331 0.0863874745169111 0.01448247867994832 0.1798438037049438 -0.2873418420885989 3.113805491277949e-22
0.05078260869565217 0.08645704022035074 0.0146 0.1800168814424353 -0.2875828923850759 3.027882674770121e-22
0.03838478953080125 0.08658413641062322 0 0.136527524876886 -0.2922852860743291 5.891153203383649e-22
0.0382641899889395 0.08646290728172461 0.0002038184872804262 0.1364260160903351 -0.2918457491617152 6.02709048814314e-22
0.0382641899889395 0.08646290728172464 0.01439618151271958 0.1364260160903351 -0.2918457491617151 6.027090488143138e-22
0.03838478953080123 0.08658413641062324 0.0146 0.1365275248768859 -0.2922852860743291 5.891153203383656e-22
0.06347826086956521 0.08629436254282845 0 0.2240532086207895 -0.2811287681118179 0
0.06347826086956521 0.08629436254282845 1.099864892503726e-05 0.2240532086207895 -0.2811287681118179 0
0.06347258946649163 0.08629044958192685 6.522113534606113e-06 0.2240442148520493 -0.2811158767814947 0
0.06347258946649163 0.08629044958192683 0.01459347788646539 0.2240442148520493 -0.2811158767814946 0
0.06347826086956521 0.08629436254282843 0.0146 0.2240532086207895 -0.2811287681118179 0
0.05095287964792673 0.08645590841915544 0 0.180603592611352 -0.287496370523929 2.978281139226685e-22
0.05088334072098279 0.08638600646589907 0.0001158418291302239 0.1805520572785637 -0.2872515447044233 2.970864054272926e-22
0.0508833407209828 0.08638600646589908 0.01448415817086978 0.1805520572785636 -0.2872515447044234 2.970864054272923e-22
0.05095287964792674 0.08645590841915544 0.0146 0.180603592611352 -0.287496370523929 2.978281139226684e-22
0.06348775450463957 0.08629429176779878 0 0.22408643892956 -0.2811225586031384 0
0.06348383716973363 0.08629035398253923 6.412745193691486e-06 0.2240831527889794 -0.2811094590108323 0
0.06348775450463957 0.08629429176779879 0.0146 0.22408643892956 -0.2811225586031384 0
0.06348383716973363 0.08629035398253923 0.01459358725480631 0.2240831527889794 -0.2811094590108323 0
0.1650434782608695 0.08657183632388774 0 0.5367738436670241 -0.1357436024850965 0
0.1650434782608695 0.08657183632388774 0.0003284363213324305 0.5367738436670241 -0.1357436024850965 0
0.1648793418170388 0.08644974188565621 0.0001887569104052343 0.5374338334598812 -0.1361794724555634 0
0.1648793418170389 0.08644974188565621 0.01441124308959476 0.5374338334598813 -0.1361794724555633 0
0.1650434782608695 0.08657183632388772 0.0146 0.5367738436670242 -0.1357436024850965 0
0.1777391304347826 0.0873821361105153 0 0.5620706706754657 -0.09690097833718282 0
0.1777391304347826 0.0873821361105153 0.001255441666620605 0.5620706706754656 -0.09690097833718282 0
0.1771013809357746 0.08692582742651167 0.0007334119238592116 0.5661409689469431 -0.09917666208325811 0
0.1771013809357746 0.08692582742651166 0.01386658807614078 0.5661409689469432 -0.09917666208325809 0
0.1777391304347826 0.08738213611051532 0.0146 0.5620706706754658 -0.09690097833718286 0
0.165339560145727 0.08658237614471638 0 0.5371016033534234 -0.1347329104159298 0
0.1652184653514878 0.08646064917798708 0.0002012351542110495 0.5383269437663324 -0.135192888396691 0
0.1652184653514878 0.08646064917798708 0.01439876484578895 0.5383269437663324 -0.135192888396691 0
0.165339560145727 0.08658237614471638 0.0146 0.5371016033534236 -0.1347329104159299 0
0.1904347826086956 0.08843289109055635 0 0.5810547659150856 -0.05126381027672569 0
0.1904347826086956 0.08843289109055635 0.002457534397189146 0.5810547659150856 -0.05126381027672569 0
0.1891465634572324 0.08757969284030015 0.001481452024182746 0.5920108932818198 -0.05675982033930368 0
0.1891465634572324 0.08757969284030015 0.01311854797581725 0.5920108932818198 -0.05675982033930366 0
0.1904347826086956 0.08843289109055635 0.0146 0.5810547659150858 -0.05126381027672569 0
0.178891329913761 0.08744296308035367 0 0.5631240112350565 -0.09254401741342397 0
0.1784472820245841 0.08699659704974391 0.0008143743282717354 0.5695569828345713 -0.09462079529991961 0
0.1784472820245841 0.0869965970497439 0.01378562567172826 0.5695569828345716 -0.09462079529991961 0
0.178891329913761 0.08744296308035367 0.0146 0.5631240112350568 -0.09254401741342398 0
0.2031304347826087 0.08979323707262243 0 0.5813729483336245 0.001115109411610167 1.494248818524417e-22
0.2031304347826087 0.08979323707262243 0.004013807788380579 0.5813729483336245 0.001115109411610166 1.494248818524417e-22
0.2009363752460931 0.08849026214351503 0.00252316846699295 0.6140449614271435 -0.01084871224074568 1.096461012814816e-22
0.2009363752460931 0.08849026214351503 0.01207683153300705 0.6140449614271435 -0.01084871224074568 1.096461012814816e-22
0.2031304347826087 0.08979323707262243 0.0146 0.5813729483336246 0.001115109411610165 1.494248818524417e-22
0.1927544584716978 0.08861653424704316 0 0.5758767332801493 -0.04079437108288683 1.856168821867417e-23
0.1919422962633968 0.08780013216527095 0.001733640702906377 0.5986936380772253 -0.04620599289074306 -4.511442293011889e-38
0.1919422962633968 0.08780013216527095 0.01286635929709362 0.5986936380772252 -0.04620599289074305 -9.764525330250072e-38
0.1927544584716978 0.08861653424704316 0.0146 0.5758767332801492 -0.04079437108288683 1.856168821867418e-23
0.2158260869565218 0.09168751338762847 0 0.5803241168323068 0.05681294465258088 2.413147383971661e-22
0.2158260869565218 0.09168751338762847 0.006180912233479589 0.5803241168323071 0.05681294465258083 2.413147383971672e-22
0.2122470675665443 0.08988245214691667 0.007300000000000002 0.6300141238042332 0.03308368455437184 3.571012575102658e-22
0.2158260869565218 0.09168751338762848 0.0146 0.5803241168323069 0.05681294465258099 2.413147383971664e-22
0.2071807027400029 0.09035616085625939 0 0.5836870429581824 0.0197019265910713 1.684422642185913e-22
0.2059997443344577 0.08916903728547612 0.003299705984626392 0.6228669127816688 0.007925499643296856 2.754998460602576e-22
0.2059997443344577 0.08916903728547612 0.01130029401537361 0.6228669127816687 0.007925499643296856 2.754998460602575e-22
0.2071807027400029 0.09035616085625939 0.0146 0.5836870429581824 0.01970192659107131 1.684422642185912e-22
0.2285217391304348 0.09445261150506506 0 0.6061492968403184 0.109003114339654 8.930181838332339e-23
0.2222300009409161 0.09290793083247331 0.007321500360684508 0.6393826552789255 0.06574238810288746 2.685805099642708e-22
0.2285217391304348 0.09445261150506505 0.009344260882228709 0.6061492968403186 0.1090031143396538 8.930181838332422e-23
0.2285217391304348 0.09445261150506505 0.0146 0.6061492968403185 0.1090031143396539 8.930181838332379e-23
0.2227548978549961 0.09324973116222668 0 0.6073076873073168 0.08463199358286716 1.708007145874031e-22
0.2227548978549961 0.09324973116222667 0.0146 0.6073076873073168 0.08463199358286703 1.708007145874035e-22
0.2412173913043479 0.09828138778562399 0 0.6237524666804645 0.1562157461599671 6.345758264353175e-23
0.2405678114747257 0.09839370714958157 0.01385298319593449 0.6256736310533759 0.1514206295315348 5.708914358385899e-23
0.2405678114747257 0.09839370714958157 0.0007470168040655094 0.6256736310533759 0.1514206295315348 5.708914358385899e-23
0.2412173913043479 0.09828138778562399 0.01372448674007166 0.6237524666804645 0.1562157461599671 6.345758264353176e-23
0.2412173913043479 0.09828138778562399 0.0146 0.6237524666804645 0.1562157461599671 6.345758264353176e-23
0.2312172581161168 0.09633708721687034 0.0115001531664657 0.6166077660037724 0.1104238425156691 3.95459202558568e-23
0.2312172581161168 0.09633708721687034 0.0030998468335343 0.6166077660037722 0.110423842515669 3.954592025585679e-23
0.2402025931883959 0.09802658224988359 0 0.6235775743503359 0.1521281003694158 6.857499328777262e-23
0.2402025931883959 0.0980265822498836 0.0146 0.623577574350336 0.1521281003694158 6.857499328777262e-23
0.2415704507527077 0.0986917755084343 0.01419398163438622 0.6250150354491268 0.156274901643888 6.889460184871062e-23
0.2415704507527077 0.0986917755084343 0.000406018365613781 0.625015035449127 0.156274901643888 6.889460184871059e-23
0.2436870713445269 0.09904667809523809 0.0146 0.6270057516997134 0.1653591569643994 1.289345630251127e-22
0.2436870713445269 0.09904667809523809 0.002840132046205888 0.6270057516997133 0.1653591569643994 1.289345630251127e-22
0.2436870713445269 0.09904667809523812 0 0.6270057516997133 0.1653591569643996 1.289345630251136e-22
0.2539130434782608 0.101965828017454 0 0.6100705470674961 0.2038723758022502 2.461081570187386e-22
0.2539130434782608 0.101965828017454 0.003339588170020728 0.6100705470674961 0.2038723758022502 2.461081570187386e-22
0.252376985204958 0.1005907553241838 0.001766467014298192 0.635336660084163 0.20202081597604 3.259266366798097e-22
0.252376985204958 0.1005907553241838 0.0128335329857018 0.6353366600841628 0.2020208159760399 3.25926636679809e-22
0.2539130434782608 0.101965828017454 0.0146 0.6100705470674959 0.2038723758022502 2.461081570187377e-22
0.2666086956521739 0.1051596854207482 0 0.6123399009632192 0.2529372449796129 2.354189000631254e-22
0.2666086956521739 0.1051596854207482 0.006993449288834944 0.6123399009632192 0.2529372449796129 2.354189000631254e-22
0.2628243261628687 0.1028508037953582 0.007300000000000002 0.6491807886560804 0.2459724668855953 4.364796433583557e-22
0.2666086956521739 0.1051596854207482 0.0146 0.6123399009632196 0.2529372449796128 2.354189000631279e-22
0.2577640769894374 0.1029178158351685 0 0.616915011479505 0.2183694391600812 3.165655001868698e-22
0.2565249569760518 0.1016722270252559 0.003003700522459706 0.6416319110193809 0.2189278048337932 4.427395771793409e-22
0.2565249569760519 0.1016722270252559 0.01159629947754029 0.6416319110193812 0.2189278048337935 4.427395771793432e-22
0.2577640769894374 0.1029178158351685 0.0146 0.6169150114795048 0.2183694391600812 3.16565500186869e-22
0.2793043478260869 0.1090512507921683 0 0.6711009139357343 0.2890829483070661 0
0.276225736462877 0.1087139244385163 0.01105959693230857 0.6684814630175416 0.2823463791562368 0
0.276225736462877 0.1087139244385163 0.003540403067691426 0.6684814630175415 0.2823463791562368 9.104052938626868e-38
0.2793043478260869 0.1090512507921683 0.01144550760154796 0.6711009139357343 0.2890829483070661 0
0.2793043478260869 0.1090512507921683 0.0146 0.6711009139357342 0.2890829483070661 0
0.2710959210627834 0.1072979567550207 0.007299999999999998 0.6384190633933053 0.2707304433154204 3.697765299920915e-23
0.2755197964756202 0.1080042991083642 0 0.6644688410652334 0.2763808606886791 1.001234848383064e-22
0.2755197964756202 0.1080042991083642 0.0146 0.6644688410652335 0.2763808606886791 1.001234848383066e-22
0.280714999305969 0.1103905918667017 0.01297775079813557 0.6764092312680985 0.2916815932656863 0
0.280714999305969 0.1103905918667017 0.001622249201864432 0.6764092312680986 0.2916815932656864 0
0.2878791738601906 0.1118086076190476 0.0146 0.6951250957783655 0.3006649186972099 0
0.2878791738601906 0.1118086076190476 0.009861049939219206 0.6951250957783655 0.3006649186972099 0
0.2878791738601906 0.1118086076190476 0 0.6951250957783655 0.3006649186972099 0
0.292 0.1131421329749904 0 0.7041594077671061 0.2998105316635664 7.137048840684887e-23
0.292 0.1131421329749904 0.001525589853825884 0.7041594077671061 0.2998105316635664 7.137048840684881e-23
0.2912917280245126 0.1125205771115194 0.0008145127718105427 0.7057332969225824 0.306355147713087 2.123254210536858e-36
0.2912917280245126 0.1125205771115194 0.01378548722818946 0.7057332969225825 0.306355147713087 1.995290229098252e-36
0.292 0.1131421329749904 0.0146 0.7041594077671061 0.2998105316635665 7.137048840684873e-23
0.31599948 0.04799895999999999 0 0 0 0
0.31599948 0.04799895999999999 0.0146 -3.433217232927402e-17 7.353809765572139e-17 -4.012479110866921e-36
0.2979998699999999 0.1151517745294441 0 0.7232209257451927 0.3028390765476563 5.77275135045785e-22
0.2979998699999999 0.1151517745294441 0.003824675320508977 0.7232209257451927 0.3028390765476563 5.772751350457846e-22
0.2970430368313408 0.1138438246261612 0.002328344491201078 0.7237589100454169 0.3115304826349402 1.651410860840178e-36
0.2970430368313408 0.1138438246261612 0.01227165550879892 0.7237589100454169 0.3115304826349402 2.201881147786903e-36
0.2979998699999999 0.1151517745294441 0.0146 0.7232209257451927 0.3028390765476563 5.772751350457845e-22
0.2926980487521058 0.11329338128557 0 0.7078332178785078 0.3027451272317114 2.563805343336766e-22
0.2924440082827354 0.1127530284835424 0.001080443564266634 0.7086342156861546 0.3067816483033435 9.48032160852695e-37
0.2924440082827354 0.1127530284835424 0.01351955643573336 0.7086342156861545 0.3067816483033434 9.786138434608458e-37
0.2926980487521058 0.11329338128557 0.0146 0.7078332178785077 0.3027451272317114 2.56380534333676e-22
0.3039997400000001 0.1162735773021564 0 0.7431115304528545 0.3127145400269093 -1.061315447204422e-23
0.3039997400000001 0.1162735773021564 0.005108048689014284 0.7431115304528546 0.3127145400269092 -1.061315447204501e-23
0.3025583502650572 0.1148744930821796 0.003507457683277242 0.7423562457877457 0.3189049757687559 5.011433831422867e-52
0.3025583502650572 0.1148744930821796 0.01109254231672276 0.7423562457877457 0.3189049757687559 5.051772701422778e-39
0.30399974 0.1162735773021563 0.0146 0.7431115304528544 0.3127145400269093 -1.061315447204469e-23
0.299715652284056 0.1154581354567049 0 0.7301119436467089 0.308087544013351 -8.67486353548538e-24
0.2992228889954147 0.1144100110204152 0.002976077370518953 0.7316869642815536 0.3141288349681277 1.351710371280293e-35
0.2992228889954147 0.1144100110204152 0.01162392262948105 0.7316869642815538 0.3141288349681277 1.394524726931705e-35
0.299715652284056 0.1154581354567049 0.0146 0.7301119436467089 0.308087544013351 -8.674863535486025e-24
0.30999961 0.1174551282678845 0 0.759484055952258 0.3176222847092485 -1.909471846102791e-21
0.30999961 0.1174551282678845 0.006459775641231533 0.759484055952258 0.3176222847092485 -1.909471846102792e-21
0.3069193360789109 0.1158817708016674 0.007234834796537228 0.7553999971373259 0.3243059066818396 0
0.30999961 0.1174551282678845 0.0146 0.759484055952258 0.3176222847092486 -1.909471846102792e-21
0.3063165634607141 0.1167365706790376 0 0.749489953803762 0.3146485983066165 -1.666478758671278e-21
0.3063165634607141 0.1167365706790376 0.0146 0.749489953803762 0.3146485983066166 -1.666478758671279e-21
0.31599948 0.1194772199964392 0 0.794515051291909 0.3206177662378201 -1.77179328208381e-21
0.31599948 0.1194772199964392 0.008773104451096808 0.794515051291909 0.3206177662378202 -1.771793282083811e-21
0.3129895419094978 0.1180377037603934 0.007291886206349354 0.7752728262074131 0.3254406439394109 0
0.31599948 0.1194772199964391 0.0146 0.794515051291909 0.3206177662378202 -1.771793282083807e-21
0.3131798007898604 0.1185729826359173 0 0.7807437411094333 0.3183362460752469 -1.562873910242158e-21
0.3131798007898604 0.1185729826359173 0.0146 0.7807437411094333 0.3183362460752469 -1.562873910242159e-21
0.3180707248463316 0.05888690609141425 0.01245611117332014 0.200931921586032 0.3084323543231197 -9.085230927182436e-21
0.3214526009074719 0.06076088952380952 0.0146 0.261546285210366 0.387605481160476 -5.410915441083894e-21
0.3180707248463316 0.05888690609141425 0.002143888826679857 0.2009319215860321 0.3084323543231198 -9.085230927182437e-21
0.3214526009074719 0.06076088952380952 0.00564437613678029 0.261546285210366 0.387605481160476 -5.410915441083895e-21
0.3214526009074719 0.06076088952380952 0 0.2615462852103659 0.3876054811604765 -5.41091544108388e-21
0.3301047705263158 0.07026084942099989 0 0.468622361523055 0.4556275885892889 -2.053009985763462e-21
0.3255314335718182 0.06489867057787874 0.007299999999999997 0.3880190039178713 0.403174478192761 -7.068989924084208e-21
0.3301047705263158 0.07026084942099989 0.01086821661569375 0.468622361523055 0.4556275885892889 -2.05300998576346e-21
0.3301047705263158 0.07026084942099989 0.0146 0.4686223615230548 0.455627588589289 -2.053009985763469e-21
0.3314547786462706 0.07230138312956473 0.0132026435602608 0.5373828585373279 0.4510124712851024 1.721660538894785e-21
0.3369153565963323 0.07352281904761904 0.0146 0.5863197468085415 0.4778512893499227 7.633426209379959e-22
0.3314547786462706 0.07230138312956472 0.001397356439739207 0.5373828585373277 0.4510124712851024 1.721660538894808e-21
0.3369153565963323 0.07352281904761904 0.007049451157119377 0.5863197468085415 0.4778512893499227 7.633426209379945e-22
0.3369153565963323 0.07352281904761904 0 0.5863197468085415 0.4778512893499227 7.633426209379949e-22
0.3724206421052631 0.07231329448223611 0 0.7041254963882714 0.5055022956216855 -2.503576520937754e-36
0.3715791727104024 0.07276148959512609 0.0008709819299393143 0.7213914070307467 0.5056700994262447 0
0.3715791727104024 0.07276148959512609 0.01372901807006069 0.7213914070307466 0.5056700994262447 0
0.3724206421052631 0.07231329448223613 0.01321627047683936 0.7041254963882716 0.5055022956216856 0
0.3724206421052631 0.07231329448223611 0.0146 0.7041254963882714 0.5055022956216855 -2.503576520937757e-36
0.3648643657730668 0.07352281904761904 0.0146 0.7134697719958172 0.5150680144900694 0
0.3648643657730668 0.07352281904761904 0.006778705270604535 0.7134697719958172 0.5150680144900694 0
0.3648643657730668 0.07352281904761904 0 0.7134697719958172 0.5150680144900694 0
0.3711843568124528 0.07240427521126688 0 0.7019144020552273 0.5114673236540395 2.941514487060998e-22
0.3711843568124528 0.07240427521126688 0.0146 0.7019144020552271 0.5114673236540395 2.941514487060998e-22
0.3732568383803239 0.07276626051304019 0.01373447613197963 0.7226556674669924 0.5046411125387527 0
0.3793061025020599 0.07352281904761904 0.0146 0.7396278086390944 0.5085635147569936 0
0.3732568383803239 0.07276626051304019 0.0008655238680203714 0.7226556674669925 0.5046411125387527 0
0.3793061025020599 0.07352281904761904 0.007126951522599362 0.7396278086390944 0.5085635147569936 0
0.3793061025020599 0.07352281904761905 0 0.7396278086390947 0.5085635147569936 0
0.4570523852631578 0.06882255063481557 0 1.064214841428086 0.2944053706527067 5.468835466296621e-21
0.454156775881375 0.07090298198791084 0.002997165985000808 1.167723464666129 0.3168803862644577 3.726272700342904e-21
0.454156775881375 0.07090298198791084 0.01160283401499918 1.167723464666129 0.3168803862644577 3.726272700342903e-21
0.4570523852631578 0.06882255063481557 0.009222763062677847 1.064214841428086 0.2944053706527067 5.468835466296621e-21
0.4570523852631578 0.06882255063481557 0.0146 1.064214841428086 0.2944053706527067 5.468835466296579e-21
0.4453927584982589 0.07352281904761905 0.0146 1.187427432384325 0.3674198605969657 8.780331535192504e-21
0.4453927584982589 0.07352281904761905 0.002531439593538991 1.187427432384325 0.3674198605969656 8.780331535192497e-21
0.4453927584982589 0.07352281904761905 0 1.187427432384325 0.3674198605969656 8.780331535192497e-21
0.4529682983259558 0.06982769277110287 0 1.085322526854295 0.333088057045366 1.703139404318119e-20
0.4529682983259558 0.06982769277110287 0.0146 1.085322526854295 0.3330880570453663 1.703139404318127e-20
0.4711576757894737 0.06681199526798645 0 0.92901047542257 0.2160722024278292 3.432003143139568e-21
0.4648722220213731 0.06644772864732906 0.006505901090307938 1.093395325649346 0.2624696316933239 2.324484458433812e-21