# p  POINT_DATA 344
# x y z  p
0.2539130434782608 0.0002962024266644841 0 98596.4108616602
0.2517181484794402 0.004962579085269864 0.01207587075135629 98582.34047618692
0.2517181484794402 0.004962579085269864 0.002524129248643715 98582.34047618692
0.2539130434782608 0.000296202426664484 0.0007207748550054363 98596.4108616602
0.2539130434782608 0.0002962024266644868 0.0146 98596.4108616602
0.2480202150241081 0.005999869999999999 0.0146 98590.62448287063
0.2480202150241081 0.005999869999999999 0.007823247277724418 98590.62448287063
0.2480202150241081 0.005999869999999999 0 98590.62448287063
0.249917437558839 0.004111576609525651 0 98600.95732304791
0.249917437558839 0.00411157660952565 0.0146 98600.95732304791
0.254215839739398 0 0 98596.87712469835
0.254215839739398 0 0.0003482157003077736 98596.87712469837
0.2540921886599424 8.466266927383168e-05 0.0002060169589337672 98596.70909352902
0.2540921886599424 8.466266927383253e-05 0.01439398304106623 98596.709093529
0.254215839739398 0 0.0146 98596.87712469837
0.2541942076376051 0.0001328760729749439 0 98596.86547335172
0.2541942076376051 0.0001328760729749453 0.0146 98596.86547335172
0.2412173913043478 0.009929205023035421 0 98588.04326402243
0.2396830783945551 0.01127463522617881 0.01283554015373845 98584.36150262906
0.2396830783945551 0.01127463522617881 0.001764459846261555 98584.36150262908
0.2412173913043478 0.009929205023035421 0.009561589057149095 98588.04326402243
0.2412173913043478 0.009929205023035421 0.0146 98588.04326402245
0.2377806017663362 0.01199974 0.0146 98594.79388919123
0.2377806017663362 0.01199974 0.01064769203128661 98594.79388919123
0.2377806017663362 0.01199974 0 98594.79388919125
0.2385837829729906 0.01075511645466305 0 98603.63269985862
0.2385837829729906 0.01075511645466305 0.0146 98603.63269985862
0.2455174909923699 0.008032064861811603 0 98594.5804023315
0.243834593650978 0.007236740199999854 0.003009782698624782 98592.03024456103
0.2455174909923699 0.008032064861811603 0.0146 98594.58040233151
0.243834593650978 0.007236740199999854 0.01159021730137522 98592.03024456103
0.2305357690275414 0.01704779457585165 0.01228386561832742 98586.01015877532
0.2292563120600079 0.01799961 0.0146 98593.26849136151
0.2305357690275414 0.01704779457585165 0.00231613438167259 98586.01015877536
0.2292563120600079 0.01799961 0.0008447588690090718 98593.26849136154
0.2292563120600079 0.01799961 0 98593.26849136154
0.2340378407349606 0.01460660824753691 0.007299999999999999 98576.71957392601
0.2344515562520076 0.01480212709802691 0 98606.81472950433
0.2344515562520076 0.01480212709802691 0.0146 98606.81472950433
0.2285217391304348 0.0184292953186348 0 98593.28053398304
0.2239883690880212 0.02185704331823068 0.007299999999999999 98584.83405771788
0.2285217391304348 0.0184292953186348 0.001045590263133726 98593.28053398304
0.2285217391304348 0.0184292953186348 0.0146 98593.28053398301
0.2200846002841158 0.02399948 0.0146 98615.75868743207
0.2200846002841158 0.02399948 0.004897290326733117 98615.75868743204
0.2200846002841158 0.02399948 0 98615.75868743204
0.2230858249573198 0.02143050773114214 0 98631.62081330898
0.2230858249573198 0.02143050773114214 0.0146 98631.62081330898
0.2290952626258366 0.01827065290250065 0 98593.6090729612
0.2288210469841829 0.01814106064687246 0.0003442040318103436 98593.5533201834
0.2290952626258366 0.01827065290250065 0.0146 98593.60907296118
0.2288210469841829 0.01814106064687246 0.01425579596818966 98593.5533201834
0.2158260869565218 0.02696703827341785 0 98611.7980003579
0.2138623671793432 0.02907131076120372 0.0123417222562446 98604.10944815385
0.2138623671793432 0.02907131076120372 0.002258277743755401 98604.10944815383
0.2158260869565218 0.02696703827341785 0.007221214924973469 98611.7980003579
0.2158260869565218 0.02696703827341785 0.0146 98611.7980003579
0.2115673804829138 0.02999935 0.0146 98628.33996115701
0.2115673804829138 0.02999935 0.009702487555350806 98628.33996115701
0.2115673804829138 0.02999935 0 98628.33996115701
0.2126232190222168 0.02848569863575698 0 98643.60493347712
0.2126232190222168 0.02848569863575699 0.0146 98643.60493347714
0.2189637953232627 0.02548233744130902 0 98620.03212328354
0.2177199202232286 0.02489449139809617 0.002177908256712927 98616.5624151865
0.2189637953232627 0.02548233744130902 0.0146 98620.03212328354
0.2177199202232286 0.02489449139809617 0.01242209174328707 98616.56241518653
0.2054507437942504 0.03490265936341574 0.01193164463661209 98608.74885135534
0.2049797350880875 0.03599922000000001 0.0146 98625.18915917123
0.2054507437942504 0.03490265936341574 0.002668355363387906 98608.74885135535
0.2049797350880875 0.03599922000000001 0.002126695351300646 98625.18915917126
0.2049797350880875 0.03599922 0 98625.18915917125
0.2077804618030725 0.03219691789466853 0.007299999999999998 98602.85412753656
0.2088140791273368 0.03268539768998591 0 98647.10376167795
0.2088140791273368 0.03268539768998591 0.0146 98647.10376167795
0.2031304347826087 0.03771802829317838 0 98621.27204149615
0.2008255168359941 0.04090980306531455 0.01194934436139321 98609.58522851563
0.2008255168359941 0.04090980306531455 0.002650655638606785 98609.58522851563
0.2031304347826087 0.03771802829317838 0.004182524134756982 98621.27204149614
0.2031304347826087 0.03771802829317838 0.0146 98621.27204149615
0.1988293356338569 0.04199909 0.0146 98639.91911119624
0.1988293356338569 0.04199909 0.009653735978935435 98639.91911119624
0.1988293356338569 0.04199909 0 98639.91911119624
0.1997505887553309 0.04040180011635371 0 98656.30965752859
0.1997505887553309 0.04040180011635371 0.0146 98656.30965752859
0.2046505262255919 0.03671760381526804 0 98627.09466474131
0.2039964116204796 0.03640847415875149 0.0009958733635515059 98626.00633481177
0.2046505262255919 0.03671760381526804 0.0146 98627.09466474129
0.2039964116204796 0.03640847415875149 0.01360412663644849 98626.00633481175
0.196206314087212 0.0450869163796333 0.007371291219234547 98572.52130968402
0.194442491192181 0.04799896000000001 0.0146 98628.76873346415
0.194442491192181 0.04799896 0.004608864871008241 98628.76873346415
0.194442491192181 0.04799895999999999 0 98628.76873346414
0.1966559691307837 0.04493917609143992 0 98656.37923589468
0.1966559691307837 0.04493917609143992 0.0146 98656.37923589471
0.1904347826086956 0.05614460763999526 0 98615.35742018934
0.1893488133169335 0.05966925095521617 0.01335113531447355 98604.88427280934
0.1893488133169335 0.05966925095521616 0.001248864685526447 98604.88427280933
0.1904347826086956 0.05614460763999526 0.00931884597247255 98615.35742018934
0.1904347826086956 0.05614460763999527 0.0146 98615.35742018934
0.1880214467285258 0.06076088952380954 0.0146 98620.11462002952
0.1880214467285258 0.06076088952380954 0.01182466373780476 98620.1146200295
0.1880214467285258 0.06076088952380952 0 98620.11462002948
0.1885090485919442 0.05882510225847452 0 98636.80997433681
0.1885090485919443 0.05882510225847454 0.0146 98636.80997433684
0.193623612922646 0.05120443752667989 0 98635.001110759
0.1924989794856627 0.05007393296761573 0.002373826408512125 98627.90790583885
0.193623612922646 0.05120443752667989 0.0146 98635.00111075898
0.1924989794856627 0.05007393296761574 0.01222617359148788 98627.90790583882
0.1856507932290863 0.06643006871696885 0.007028565880671491 98567.31805926163
0.182465259135678 0.07352281904761904 0.0146 98613.95017491208
0.182465259135678 0.07352281904761904 0.005435048006029677 98613.95017491207
0.182465259135678 0.07352281904761904 0 98613.95017491205
0.184640326118132 0.06769811273490972 0 98645.80246556248
0.184640326118132 0.06769811273490972 0.0146 98645.80246556248
0.1778347721716464 0.08618860753915469 0.01449001200260665 98594.12520153807
0.1778661804194081 0.08628474857142859 0.0146 98594.33114536303
0.1778347721716464 0.08618860753915469 0.0001099879973933534 98594.12520153806
0.1778661804194081 0.08628474857142859 0.0001461074823193549 98594.33114536302
0.1778661804194081 0.08628474857142859 0 98594.33114536302
0.180220338703772 0.07601698040530033 0.002853389509337834 98611.46223682792
0.1815195292514359 0.07732295334628522 0 98620.24008771026
0.1815195292514359 0.07732295334628522 0.0146 98620.24008771029
0.180220338703772 0.07601698040530033 0.01174661049066216 98611.46223682797
0.1777391304347826 0.08664129868656971 0 98593.89252440909
0.1754687071461626 0.09676440211589758 0.01198901321808706 98575.03785915174
0.1754687071461626 0.09676440211589758 0.002610986781912937 98575.03785915174
0.1777391304347826 0.0866412986865697 0.0004079031835545055 98593.89252440908
0.1777391304347826 0.08664129868656971 0.0146 98593.89252440911
0.1737545588172101 0.09904667809523807 0.0146 98598.58859410507
0.1737545588172101 0.09904667809523807 0.01001774263979164 98598.58859410507
0.1737545588172101 0.09904667809523808 0 98598.58859410507
0.1744603310047363 0.09575076177083394 0 98612.79055467901
0.1744603310047363 0.09575076177083394 0.0146 98612.790554679
0.1778526294565822 0.08639884011216917 0 98594.37016481718
0.1778018704312489 0.08634781610055262 7.215099593621335e-05 98594.34852380422
0.1778526294565822 0.08639884011216917 0.0146 98594.37016481721
0.1778018704312489 0.08634781610055262 0.01452784900406379 98594.34852380423
0.1726778813242392 0.1051239319419433 0.007184182107059378 98556.9708669485
0.1707279246057836 0.1118086076190476 0.0146 98593.26021559877
0.1707279246057836 0.1118086076190476 0.00653711329665115 98593.26021559877
0.1707279246057836 0.1118086076190476 0 98593.26021559877
0.1719737607376787 0.1060131399467107 0 98607.81569732843
0.1719737607376787 0.1060131399467107 0.0146 98607.81569732842
0.1677870310286456 0.1218126617231796 0.01144491431705755 98578.24677990978
0.1682116285044342 0.1245705371428571 0.0146 98586.43014807218
0.1677870310286456 0.1218126617231796 0.003155085682942447 98578.24677990978
0.1682116285044342 0.1245705371428571 0.003643372780099334 98586.43014807218
0.1682116285044342 0.1245705371428571 0 98586.43014807216
0.1687501288860373 0.1155346087255505 0.007299999999999997 98583.05263310741
0.1698686774845282 0.1166589966803677 0 98597.8708183438
0.1698686774845282 0.1166589966803677 0.0146 98597.8708183438
0.1655871609107109 0.1367859457344966 0.01397476495268233 98576.45916756468
0.165828838204513 0.1373324666666667 0.0146 98577.05996368964
0.1655871609107109 0.1367859457344965 0.0006252350473176749 98576.45916756465
0.165828838204513 0.1373324666666666 0.0009031639351900502 98577.05996368961
0.165828838204513 0.1373324666666666 0 98577.05996368962
0.1668864878242385 0.1264231680937704 0.002119460997874299 98584.67966877324
0.1678822423318539 0.1274241209140844 0 98587.62435403759
0.1678822423318539 0.1274241209140844 0.0146 98587.62435403759
0.1668864878242385 0.1264231680937704 0.01248053900212571 98584.67966877323
0.1650434782608695 0.1416320269484438 0 98574.42084207904
0.164192605775717 0.1492390817457738 0.0136214966420746 98569.14057897784
0.164192605775717 0.1492390817457738 0.0009785033579254028 98569.14057897787
0.1650434782608695 0.1416320269484438 0.004918815763465222 98574.42084207904
0.1650434782608695 0.1416320269484438 0.0146 98574.42084207905
0.1635274883971677 0.1500943961904762 0.0146 98575.02411785713
0.1635274883971677 0.1500943961904762 0.01285661165674296 98575.02411785713
0.1635274883971677 0.1500943961904762 0 98575.02411785715
0.1636655099821997 0.1487092342612164 0 98578.05604347227
0.1636655099821997 0.1487092342612164 0.0146 98578.05604347224
0.1657696646754951 0.1380624441201796 0 98577.17851102828
0.1654706233817106 0.137761841688441 0.0004912168889673371 98576.93091157275
0.1657696646754951 0.1380624441201797 0.0146 98577.17851102829
0.1654706233817106 0.1377618416884411 0.01410878311103267 98576.93091157277
0.1629257758808259 0.1607275679193886 0.002435357737050099 98562.19809058354
0.1639265463955433 0.1512171589720117 0.001284471645125144 98566.68127549773
0.1629257758808259 0.1607275679193886 0.0121646422629499 98562.19809058354
0.1639265463955433 0.1512171589720117 0.01331552835487486 98566.68127549771
0.1616590003618641 0.1628563257142857 0.0146 98573.60492017312
0.1616590003618641 0.1628563257142857 0.01070785041614384 98573.60492017312
0.1616590003618641 0.1628563257142857 0 98573.60492017312
0.1619808656363586 0.1597777247934879 0 98578.43087882163
0.1619808656363586 0.159777724793488 0.0146 98578.43087882164
0.1614607293938175 0.1720168027158863 0.007299999999999999 98556.94357629573
0.1621297208693011 0.1657852943069416 0.003350821000303644 98558.70355357887
0.1621297208693011 0.1657852943069416 0.01124917899969636 98558.70355357887
0.1600100201986407 0.1756182552380952 0.0146 98570.9889295606
0.1600100201986407 0.1756182552380952 0.008811523228436893 98570.9889295606
0.1600100201986407 0.1756182552380952 0 98570.98892956058
0.1605118371698142 0.1710629568226202 0 98576.05750891776
0.1605118371698142 0.1710629568226202 0.0146 98576.05750891777
0.1595999388796242 0.1818856891628226 0.00725670586176648 98553.69891765073
0.1583821934535724 0.1883801847619048 0.0146 98568.19079433486
0.1583821934535724 0.1883801847619048 0.006939522471608292 98568.19079433486
0.1583821934535724 0.1883801847619048 0 98568.19079433486
0.1591000563396895 0.1824057353480953 0 98572.98619463686
0.1591000563396895 0.1824057353480953 0.0146 98572.98619463688
0.1567386443098062 0.1949692037160494 0.007379339914888676 98559.78787000875
0.1567724410337279 0.2011421142857142 0.0146 98564.96782978956
0.1567724410337279 0.2011421142857142 0.005088307188787192 98564.96782978956
0.1567724410337279 0.2011421142857142 0 98564.96782978956
0.1576919315990929 0.1937521890496267 0 98569.63953704253
0.1576919315990929 0.1937521890496267 0.0146 98569.63953704253
0.1546935230192295 0.2115461012222657 0.01190244852788602 98559.23514296857
0.1555163028061417 0.2139040438095238 0.0146 98560.56155354092
0.1546935230192295 0.2115461012222657 0.002697551472113984 98559.23514296854
0.1555163028061417 0.2139040438095238 0.003643748227063003 98560.5615535409
0.1555163028061417 0.2139040438095238 0 98560.5615535409
0.1552047869289594 0.2040139898237699 0.003285504968303378 98562.9952235065
0.1563738556119695 0.2051891616020048 0 98565.58966016275
0.1563738556119695 0.2051891616020048 0.0146 98565.58966016278
0.1552047869289594 0.2040139898237699 0.01131449503169662 98562.99522350651
0.1539852419031741 0.2250200094268332 0.0127169718113497 98555.44419000061
0.1548894150364164 0.2266659733333333 0.0146 98555.70147237279
0.1539852419031741 0.2250200094268333 0.001883028188650296 98555.44419000061
0.1548894150364164 0.2266659733333334 0.002922827291878886 98555.70147237281
0.1548894150364164 0.2266659733333334 0 98555.70147237279
0.1542670083028279 0.2158332450704583 0.002207059548252084 98559.96805348434
0.1553672111680367 0.2169391915185297 0 98560.69199670752
0.1553672111680367 0.2169391915185297 0.0146 98560.69199670752
0.1542670083028279 0.2158332450704583 0.01239294045174791 98559.96805348432
0.1537323444298113 0.2380361566692439 0.01300780390571694 98552.63762643035
0.1545966861019611 0.2394279028571429 0.0146 98552.67664310882
0.1537323444298113 0.2380361566692438 0.001592196094283069 98552.63762643035
0.1545966861019611 0.2394279028571428 0.00258618901725538 98552.67664310882
0.1545966861019612 0.2394279028571428 0 98552.67664310882
0.153890960469422 0.2282171636121013 0.001774604539835399 98555.49571922487
0.1548694630534517 0.2292007744455732 0 98555.70740535841
0.1548694630534517 0.2292007744455732 0.0146 98555.70740535841
0.1538909604694221 0.2282171636121012 0.01282539546016461 98555.49571922485
0.1523478260869565 0.2456252356253923 0 98554.31639559708
0.1512950734989848 0.2511315839231607 0.01338933452383255 98555.2516941419
0.1512950734989848 0.2511315839231607 0.001210665476167455 98555.2516941419
0.1523478260869565 0.2456252356253923 0.007089919925324406 98554.31639559708
0.1523478260869565 0.2456252356253924 0.0146 98554.31639559707
0.1481143588976074 0.2521898323809524 0.0146 98559.13306020791
0.1481143588976074 0.2521898323809524 0.009731512732248551 98559.13306020793
0.1481143588976074 0.2521898323809524 0 98559.13306020793
0.1503420466306964 0.2501735818007976 0 98557.00556653985
0.1503420466306964 0.2501735818007976 0.0146 98557.00556653985
0.1545910692017014 0.2416828567691577 0 98552.65168345998
0.1537602822674425 0.2408477327314891 0.001624324607558861 98552.62623877244
0.1545910692017014 0.2416828567691578 0.0146 98552.65168345999
0.1537602822674425 0.2408477327314892 0.01297567539244114 98552.62623877249
0.01269565217391304 0.2647614683225417 0 98571.340714665
0.01258609930851668 0.2648416371212401 0.01447401420479419 98571.02694594796
0.01258609930851668 0.2648416371212401 0.0001259857952058111 98571.02694594793
0.01269565217391304 0.2647614683225417 0.01438229888393984 98571.34071466503
0.01269565217391304 0.2647614683225417 0.0146 98571.34071466503
6.806536563369011e-05 0.2648833412055075 0.01452172482952126 98571.14029692874
6.806536563369011e-05 0.2648833412055075 7.827517047874365e-05 98571.14029692874
0 0.2648339649965283 0.0146 98571.33856062758
0 0.2648339649965283 0.01446523708213537 98571.3385606276
0 0.2648339649965283 0 98571.33856062758
0.01250686624616263 0.2647619904245705 0 98571.34607442013
0.01250686624616263 0.2647619904245705 0.0146 98571.34607442016
0.02539130434782608 0.2645651294558802 0 98571.28282115943
0.02516813133704597 0.2647274238245926 0.01434335103760287 98570.67473986729
0.02516813133704597 0.2647274238245926 0.0002566489623971241 98570.6747398673
0.02539130434782608 0.2645651294558802 0.01415768179544153 98571.28282115942
0.02539130434782608 0.2645651294558802 0.0146 98571.28282115942
0.01280661844337006 0.2648402163385372 0.01447238879012443 98571.0214260069
0.01280661844337006 0.2648402163385372 0.0001276112098755775 98571.02142600688
0.02500956783984961 0.2645680325504345 0 98571.31676077076
0.02500956783984961 0.2645680325504345 0.0146 98571.31676077076
0.03808695652173914 0.2642619290924524 0 98571.11426911782
0.03768628228038966 0.2645489959530753 0.01413922462244811 98570.10470910124
0.03768628228038966 0.2645489959530753 0.0004607753775518878 98570.10470910122
0.03808695652173913 0.2642619290924525 0.01381081220195369 98571.11426911784
0.03808695652173913 0.2642619290924524 0.0146 98571.11426911784
0.02561960233484441 0.264722272093538 0.01433745731492893 98570.64977043866
0.02561960233484441 0.264722272093538 0.0002625426850710733 98570.64977043867
0.03740891093004977 0.264270176592205 0 98571.21504902358
0.03740891093004977 0.2642701765922051 0.0146 98571.21504902358
0.05078260869565217 0.2638527781868019 0 98570.8223033805
0.05013739183234711 0.2643031767021842 0.01385800060719918 98569.37666570798
0.05013739183234711 0.2643031767021842 0.0007419993928008178 98569.37666570798
0.05078260869565217 0.2638527781868019 0.01334273226064438 98570.8223033805
0.05078260869565217 0.2638527781868019 0.0146 98570.8223033805
0.03850182016424623 0.2645347324764868 0.01412290681111684 98570.04422120903
0.03850182016424623 0.2645347324764868 0.0004770931888831624 98570.04422120901
0.04970810364353467 0.2638716474246032 0 98571.03946834257
0.04970810364353466 0.2638716474246033 0.0146 98571.03946834257
0.06347826086956521 0.2633504171872552 0 98570.35666606858
0.06252177136667637 0.2639902790711968 0.01350003707167785 98568.54834602868
0.06252177136667639 0.2639902790711968 0.001099962928322144 98568.54834602866
0.06347826086956521 0.2633504171872552 0.01276801739643055 98570.35666606858
0.06347826086956521 0.2633504171872552 0.0146 98570.35666606858
0.05146067195125248 0.2642701588360801 0.01382022725605963 98569.26208669075
0.05146067195125248 0.2642701588360801 0.0007797727439403643 98569.26208669077
0.06192124364890741 0.2633866163127755 0 98570.74680599605
0.06192124364890741 0.2633866163127755 0.0146 98570.74680599607
0.07617391304347826 0.2627648619011277 0 98569.68768935371
0.07483712905668646 0.2636079992689953 0.01306269841518944 98567.70858602152
0.07483712905668646 0.2636079992689953 0.001537301584810559 98567.70858602153
0.07617391304347826 0.2627648619011277 0.01209812596962781 98569.68768935368
0.07617391304347826 0.2627648619011277 0.0146 98569.6876893537
0.0644987190768118 0.263925976419741 0.01342647306166641 98568.37462307548
0.0644987190768118 0.263925976419741 0.001173526938333586 98568.37462307548
0.07405951936480541 0.2628263300842323 0 98570.30214979961
0.07405951936480541 0.2628263300842322 0.0146 98570.30214979958
0.08886956521739131 0.2621016819653476 0 98568.81124636887
0.08707397548204283 0.2631467983359522 0.01253507180434925 98566.98957829969
0.08707397548204282 0.2631467983359522 0.002064928195650756 98566.98957829972
0.08886956521739131 0.2621016819653476 0.01133942979877643 98568.81124636884
0.08886956521739131 0.2621016819653476 0.0146 98568.81124636883
0.07762576428101151 0.263492331312411 0.01293037107683677 98567.50494932555
0.07762576428101151 0.263492331312411 0.001669628923163228 98567.50494932556
0.08613072343583092 0.2621986220648914 0 98569.68923331769
0.08613072343583092 0.2621986220648914 0.0146 98569.68923331768
0.1015652173913043 0.2613552291679689 0 98567.93271470939
0.09921643473323849 0.262590717482753 0.01189889994322434 98566.695656411
0.09921643473323852 0.262590717482753 0.002701100056775669 98566.695656411
0.1015652173913043 0.2613552291679689 0.01048546717334454 98567.93271470936
0.1015652173913043 0.2613552291679689 0.0146 98567.93271470937
0.09086103204139757 0.2629498986756167 0.01230981315239278 98566.84282849605
0.09086103204139759 0.2629498986756167 0.002290186847607228 98566.84282849607
0.0981402785882392 0.2615089432902216 0 98569.05003387603
0.09814027858823922 0.2615089432902215 0.0146 98569.050033876
0.1142608695652174 0.2604138859188976 0 98567.66722465675
0.1111697086723444 0.2618444636800467 0.01104516497319602 98567.65689436265
0.1111697086723444 0.2618444636800467 0.003554835026803983 98567.65689436265
0.1142608695652174 0.2604138859188976 0.009408544486160042 98567.66722465675
0.1142608695652174 0.2604138859188976 0.0146 98567.66722465676
0.1042785085045769 0.2622243061198347 0.01147971521973653 98567.05536489958
0.1042785085045769 0.2622243061198347 0.003120284780263469 98567.05536489958
0.1100350656960268 0.2607038973270866 0 98568.87382362415
0.1100350656960268 0.2607038973270866 0.0146 98568.87382362416
0.1269565217391304 0.2590828071691144 0 98567.68210546681
0.1204271835238039 0.2607078020446848 0.007230420350791501 98570.73627860425
0.1269565217391304 0.2590828071691144 0.007885753617382857 98567.68210546681
0.1269565217391304 0.2590828071691145 0.0146 98567.68210546681
0.1216694881617901 0.2596371274945128 0 98569.06606348098
0.1216694881617901 0.2596371274945128 0.0146 98569.066063481
0.1396521739130435 0.2569762799197187 0 98563.94251696661
0.1396521739130435 0.2569762799197187 0.005475828238638303 98563.94251696661
0.1334014629712952 0.258006836851783 0.007337227472329836 98576.15552749019
0.1396521739130435 0.2569762799197187 0.0146 98563.94251696659
0.1329008771728143 0.2581652201806455 0 98567.63363963677
0.1329008771728142 0.2581652201806455 0.0146 98567.63363963677
0.1437976811254069 0.2563569811150154 0 98562.07526284005
0.1426508651395172 0.2552041782035764 0.003448494910444738 98566.82947077362
0.1437976811254069 0.2563569811150154 0.0146 98562.07526284002
0.1426508651395172 0.2552041782035764 0.01115150508955526 98566.82947077361
