# U  POINT_DATA 344
# x y z  U_x U_y U_z
0.2539130434782608 0.0002962024266644841 0 0.07924554585649778 -7.615640022404894e-05 2.06312613125663e-24
0.2517181484794402 0.004962579085269864 0.01207587075135629 1.583157536135386 -0.007210351364269642 3.638665879470045e-23
0.2517181484794402 0.004962579085269864 0.002524129248643715 1.583157536135386 -0.007210351364269644 3.638665879470045e-23
0.2539130434782608 0.000296202426664484 0.0007207748550054363 0.07924554585649778 -7.615640022404877e-05 2.06312613125663e-24
0.2539130434782608 0.0002962024266644868 0.0146 0.07924554585649847 -7.615640022404945e-05 2.063126131256648e-24
0.2480202150241081 0.005999869999999999 0.0146 1.592086468490401 -0.01161406522149746 5.249963379594716e-23
0.2480202150241081 0.005999869999999999 0.007823247277724418 1.592086468490401 -0.01161406522149746 5.249963379594717e-23
0.2480202150241081 0.005999869999999999 0 1.592086468490401 -0.01161406522149746 5.249963379594717e-23
0.249917437558839 0.004111576609525651 0 1.100004940613595 -0.001057124606820179 2.863818922518308e-23
0.249917437558839 0.00411157660952565 0.0146 1.100004940613595 -0.001057124606820224 2.863818922518312e-23
0.254215839739398 0 0 0 0 0
0.254215839739398 0 0.0003482157003077736 0 0 0
0.2540921886599424 8.466266927383168e-05 0.0002060169589337672 0.0448333626284002 -0.0005002856595848534 0
0.2540921886599424 8.466266927383253e-05 0.01439398304106623 0.04483336262840065 -0.0005002856595848585 0
0.254215839739398 0 0.0146 0 0 0
0.2541942076376051 0.0001328760729749439 0 0.03214857163650257 0.003312155058776285 1.159923231183647e-37
0.2541942076376051 0.0001328760729749453 0.0146 0.03214857163650265 0.003312155058776293 1.159923231183647e-37
0.2412173913043478 0.009929205023035421 0 1.657996714869132 -0.02699056035533362 5.867794772768234e-23
0.2396830783945551 0.01127463522617881 0.01283554015373845 1.674063313682181 -0.02914333454516203 6.152382474139905e-23
0.2396830783945551 0.01127463522617881 0.001764459846261555 1.674063313682182 -0.02914333454516203 6.152382474139905e-23
0.2412173913043478 0.009929205023035421 0.009561589057149095 1.657996714869132 -0.0269905603553336 5.867794772768225e-23
0.2412173913043478 0.009929205023035421 0.0146 1.657996714869132 -0.0269905603553336 5.867794772768225e-23
0.2377806017663362 0.01199974 0.0146 1.665247703050189 -0.03436552661437646 5.170855680560901e-23
0.2377806017663362 0.01199974 0.01064769203128661 1.665247703050189 -0.03436552661437646 5.170855680560901e-23
0.2377806017663362 0.01199974 0 1.665247703050189 -0.03436552661437646 5.170855680560901e-23
0.2385837829729906 0.01075511645466305 0 1.668556881412734 -0.02711977050071031 5.484937964519125e-23
0.2385837829729906 0.01075511645466305 0.0146 1.668556881412733 -0.0271197705007103 5.484937964519123e-23
0.2455174909923699 0.008032064861811603 0 1.599969549157996 0.01513293387128116 5.483251829939499e-23
0.243834593650978 0.007236740199999854 0.003009782698624782 1.60642995320372 -0.02574374316954899 9.625411664607749e-23
0.2455174909923699 0.008032064861811603 0.0146 1.599969549157996 0.01513293387128087 5.483251829939508e-23
0.243834593650978 0.007236740199999854 0.01159021730137522 1.606429953203721 -0.025743743169549 9.625411664607748e-23
0.2305357690275414 0.01704779457585165 0.01228386561832742 1.602840786487787 -0.09591638561947735 0
0.2292563120600079 0.01799961 0.0146 1.6117754349336 -0.1003087931826366 0
0.2305357690275414 0.01704779457585165 0.00231613438167259 1.602840786487788 -0.09591638561947739 0
0.2292563120600079 0.01799961 0.0008447588690090718 1.611775434933601 -0.1003087931826364 0
0.2292563120600079 0.01799961 0 1.611775434933601 -0.1003087931826364 0
0.2340378407349606 0.01460660824753691 0.007299999999999999 1.593405636125203 -0.06923781755870777 5.465337193400776e-24
0.2344515562520076 0.01480212709802691 0 1.636589365790327 -0.02286279051745007 2.222945863509244e-23
0.2344515562520076 0.01480212709802691 0.0146 1.636589365790327 -0.02286279051745005 2.222945863509244e-23
0.2285217391304348 0.0184292953186348 0 1.61106852868351 -0.1068222871647344 0
0.2239883690880212 0.02185704331823068 0.007299999999999999 1.584688720899435 -0.1181442961950054 0
0.2285217391304348 0.0184292953186348 0.001045590263133726 1.61106852868351 -0.1068222871647344 0
0.2285217391304348 0.0184292953186348 0.0146 1.61106852868351 -0.1068222871647344 0
0.2200846002841158 0.02399948 0.0146 1.565396074867782 -0.150495116235347 3.506090442913711e-22
0.2200846002841158 0.02399948 0.004897290326733117 1.565396074867782 -0.150495116235347 3.506090442913713e-22
0.2200846002841158 0.02399948 0 1.565396074867782 -0.1504951162353471 3.506090442913716e-22
0.2230858249573198 0.02143050773114214 0 1.609068897464618 -0.1061275759459499 0
0.2230858249573198 0.02143050773114214 0.0146 1.609068897464618 -0.10612757594595 0
0.2290952626258366 0.01827065290250065 0 1.606092960021634 -0.0963272297192358 0
0.2288210469841829 0.01814106064687246 0.0003442040318103436 1.611766227674468 -0.1095144745167666 0
0.2290952626258366 0.01827065290250065 0.0146 1.606092960021634 -0.09632722971923581 0
0.2288210469841829 0.01814106064687246 0.01425579596818966 1.611766227674467 -0.1095144745167667 0
0.2158260869565218 0.02696703827341785 0 1.556025778804707 -0.1959774601908741 7.755562484759097e-22
0.2138623671793432 0.02907131076120372 0.0123417222562446 1.557133605711195 -0.2201753975067016 1.363467173877333e-21
0.2138623671793432 0.02907131076120372 0.002258277743755401 1.557133605711195 -0.2201753975067016 1.363467173877333e-21
0.2158260869565218 0.02696703827341785 0.007221214924973469 1.556025778804707 -0.1959774601908741 7.755562484759096e-22
0.2158260869565218 0.02696703827341785 0.0146 1.556025778804707 -0.1959774601908741 7.755562484759098e-22
0.2115673804829138 0.02999935 0.0146 1.532126577658299 -0.2410888416759137 1.101175468126453e-21
0.2115673804829138 0.02999935 0.009702487555350806 1.532126577658299 -0.2410888416759136 1.101175468126453e-21
0.2115673804829138 0.02999935 0 1.532126577658298 -0.2410888416759136 1.101175468126453e-21
0.2126232190222168 0.02848569863575698 0 1.557954401424471 -0.2151736851861694 9.94898615933298e-22
0.2126232190222168 0.02848569863575699 0.0146 1.557954401424471 -0.2151736851861694 9.948986159332984e-22
0.2189637953232627 0.02548233744130902 0 1.564159587006812 -0.1346232556574575 3.971845912059722e-22
0.2177199202232286 0.02489449139809617 0.002177908256712927 1.522873694827228 -0.1817162236265388 3.701752915135809e-22
0.2189637953232627 0.02548233744130902 0.0146 1.564159587006813 -0.1346232556574573 3.971845912059719e-22
0.2177199202232286 0.02489449139809617 0.01242209174328707 1.522873694827228 -0.1817162236265388 3.701752915135865e-22
0.2054507437942504 0.03490265936341574 0.01193164463661209 1.380893499308551 -0.361635153696904 4.547465001078012e-22
0.2049797350880875 0.03599922000000001 0.0146 1.396910020885666 -0.3632962292500251 -3.01737443512772e-22
0.2054507437942504 0.03490265936341574 0.002668355363387906 1.380893499308551 -0.361635153696904 4.547465001078016e-22
0.2049797350880875 0.03599922000000001 0.002126695351300646 1.396910020885667 -0.363296229250025 -3.017374435127734e-22
0.2049797350880875 0.03599922 0 1.396910020885666 -0.3632962292500254 -3.017374435127708e-22
0.2077804618030725 0.03219691789466853 0.007299999999999998 1.412686493980171 -0.3089657158797673 1.801902938669852e-21
0.2088140791273368 0.03268539768998591 0 1.495772166791172 -0.2579764033138037 9.116835906810698e-22
0.2088140791273368 0.03268539768998591 0.0146 1.495772166791172 -0.2579764033138038 9.116835906810688e-22
0.2031304347826087 0.03771802829317838 0 1.362563265642127 -0.4069468497407258 -1.678650614477173e-22
0.2008255168359941 0.04090980306531455 0.01194934436139321 1.335669294448647 -0.4474396220384623 -8.232183989591347e-22
0.2008255168359941 0.04090980306531455 0.002650655638606785 1.335669294448646 -0.4474396220384622 -8.232183989591348e-22
0.2031304347826087 0.03771802829317838 0.004182524134756982 1.362563265642127 -0.4069468497407259 -1.678650614477172e-22
0.2031304347826087 0.03771802829317838 0.0146 1.362563265642127 -0.4069468497407258 -1.678650614477175e-22
0.1988293356338569 0.04199909 0.0146 1.311435241726415 -0.4672139276853736 3.9373272752777e-22
0.1988293356338569 0.04199909 0.009653735978935435 1.311435241726415 -0.4672139276853736 3.937327275277699e-22
0.1988293356338569 0.04199909 0 1.311435241726415 -0.4672139276853736 3.937327275277696e-22
0.1997505887553309 0.04040180011635371 0 1.339506273421963 -0.4406683082258374 -8.60137247491088e-23
0.1997505887553309 0.04040180011635371 0.0146 1.339506273421963 -0.4406683082258375 -8.601372474910791e-23
0.2046505262255919 0.03671760381526804 0 1.374925698513466 -0.3629332270004341 -1.780141542232071e-22
0.2039964116204796 0.03640847415875149 0.0009958733635515059 1.366177233958066 -0.3966820524091758 -3.788246448348794e-22
0.2046505262255919 0.03671760381526804 0.0146 1.374925698513466 -0.362933227000434 -1.780141542232072e-22
0.2039964116204796 0.03640847415875149 0.01360412663644849 1.366177233958066 -0.3966820524091758 -3.788246448348797e-22
0.196206314087212 0.0450869163796333 0.007371291219234547 1.202676819873431 -0.5438276730895969 3.544488692177655e-21
0.194442491192181 0.04799896000000001 0.0146 1.209148497658875 -0.5329886461441619 1.12388274079813e-21
0.194442491192181 0.04799896 0.004608864871008241 1.209148497658875 -0.5329886461441619 1.123882740798129e-21
0.194442491192181 0.04799895999999999 0 1.209148497658875 -0.5329886461441619 1.12388274079813e-21
0.1966559691307837 0.04493917609143992 0 1.282780152104202 -0.4573155044258657 1.127020089942664e-21
0.1966559691307837 0.04493917609143992 0.0146 1.282780152104203 -0.4573155044258658 1.127020089942664e-21
0.1904347826086956 0.05614460763999526 0 1.080578288658488 -0.6652813413788016 -1.162517953962917e-21
0.1893488133169335 0.05966925095521617 0.01335113531447355 1.051329303377622 -0.6955979946795263 -1.484732524580925e-21
0.1893488133169335 0.05966925095521616 0.001248864685526447 1.051329303377622 -0.6955979946795261 -1.484732524580925e-21
0.1904347826086956 0.05614460763999526 0.00931884597247255 1.080578288658488 -0.6652813413788015 -1.162517953962904e-21
0.1904347826086956 0.05614460763999527 0.0146 1.080578288658488 -0.6652813413788016 -1.162517953962905e-21
0.1880214467285258 0.06076088952380954 0.0146 1.034680560467629 -0.7021553261066948 -1.642034344293174e-21
0.1880214467285258 0.06076088952380954 0.01182466373780476 1.034680560467629 -0.7021553261066947 -1.642034344293176e-21
0.1880214467285258 0.06076088952380952 0 1.034680560467629 -0.7021553261066944 -1.642034344293172e-21
0.1885090485919442 0.05882510225847452 0 1.050571904501777 -0.6879135772367699 -1.639755234355199e-21
0.1885090485919443 0.05882510225847454 0.0146 1.050571904501777 -0.6879135772367703 -1.639755234355206e-21
0.193623612922646 0.05120443752667989 0 1.129065210150855 -0.5289661694971053 3.747863795746741e-22
0.1924989794856627 0.05007393296761573 0.002373826408512125 1.135751031126912 -0.6054912368851443 -1.35090626141485e-21
0.193623612922646 0.05120443752667989 0.0146 1.129065210150855 -0.5289661694971052 3.747863795746747e-22
0.1924989794856627 0.05007393296761574 0.01222617359148788 1.135751031126912 -0.6054912368851437 -1.350906261414847e-21
0.1856507932290863 0.06643006871696885 0.007028565880671491 0.9614086072725438 -0.7389890351873043 -5.665717264213972e-22
0.182465259135678 0.07352281904761904 0.0146 0.8934967943411287 -0.748985078492965 -5.044240412909142e-22
0.182465259135678 0.07352281904761904 0.005435048006029677 0.8934967943411285 -0.7489850784929649 -5.044240412909142e-22
0.182465259135678 0.07352281904761904 0 0.8934967943411285 -0.7489850784929649 -5.044240412909141e-22
0.184640326118132 0.06769811273490972 0 0.9567975931864647 -0.6856370970097041 -3.790243169320081e-22
0.184640326118132 0.06769811273490972 0.0146 0.9567975931864648 -0.6856370970097041 -3.790243169320083e-22
0.1778347721716464 0.08618860753915469 0.01449001200260665 0.7604480190845295 -0.8546702335248015 -3.007105413144472e-38
0.1778661804194081 0.08628474857142859 0.0146 0.759818478067832 -0.851628491432043 0
0.1778347721716464 0.08618860753915469 0.0001099879973933534 0.7604480190845294 -0.8546702335248014 -3.007105413144472e-38
0.1778661804194081 0.08628474857142859 0.0001461074823193549 0.7598184780678319 -0.8516284914320429 0
0.1778661804194081 0.08628474857142859 0 0.7598184780678319 -0.8516284914320429 0
0.180220338703772 0.07601698040530033 0.002853389509337834 0.8512917832869356 -0.8044335242466278 -1.719714106037105e-23
0.1815195292514359 0.07732295334628522 0 0.8464450419742233 -0.706247219960163 -1.982570773627027e-23
0.1815195292514359 0.07732295334628522 0.0146 0.8464450419742235 -0.7062472199601629 -1.982570773627227e-23
0.180220338703772 0.07601698040530033 0.01174661049066216 0.8512917832869359 -0.8044335242466281 -1.719714106037061e-23
0.1777391304347826 0.08664129868656971 0 0.7564783152315018 -0.8559935827828415 0
0.1754687071461626 0.09676440211589758 0.01198901321808706 0.6673736673684806 -0.8883482337095141 0
0.1754687071461626 0.09676440211589758 0.002610986781912937 0.6673736673684806 -0.8883482337095141 0
0.1777391304347826 0.0866412986865697 0.0004079031835545055 0.7564783152315018 -0.8559935827828415 0
0.1777391304347826 0.08664129868656971 0.0146 0.7564783152315019 -0.8559935827828417 0
0.1737545588172101 0.09904667809523807 0.0146 0.6492330979372242 -0.8861900669293336 0
0.1737545588172101 0.09904667809523807 0.01001774263979164 0.6492330979372243 -0.8861900669293337 0
0.1737545588172101 0.09904667809523808 0 0.6492330979372241 -0.8861900669293336 0
0.1744603310047363 0.09575076177083394 0 0.6742108924506832 -0.8721518026117574 0
0.1744603310047363 0.09575076177083394 0.0146 0.6742108924506831 -0.8721518026117573 0
0.1778526294565822 0.08639884011216917 0 0.7575815056243711 -0.8508032381760831 0
0.1778018704312489 0.08634781610055262 7.215099593621335e-05 0.7590705440376336 -0.8552169571495762 0
0.1778526294565822 0.08639884011216917 0.0146 0.7575815056243712 -0.8508032381760834 0
0.1778018704312489 0.08634781610055262 0.01452784900406379 0.7590705440376337 -0.8552169571495762 0
0.1726778813242392 0.1051239319419433 0.007184182107059378 0.6008781106697431 -0.9110459241686428 0
0.1707279246057836 0.1118086076190476 0.0146 0.5535748933795865 -0.8713918575471007 0
0.1707279246057836 0.1118086076190476 0.00653711329665115 0.5535748933795865 -0.8713918575471006 0
0.1707279246057836 0.1118086076190476 0 0.5535748933795863 -0.8713918575471005 0
0.1719737607376787 0.1060131399467107 0 0.5931500241736843 -0.8420719202769856 0
0.1719737607376787 0.1060131399467107 0.0146 0.5931500241736843 -0.8420719202769856 0
0.1677870310286456 0.1218126617231796 0.01144491431705755 0.4901659382176445 -0.9467757328043017 -7.948412484747486e-21
0.1682116285044342 0.1245705371428571 0.0146 0.4741902419415659 -0.8762320464094038 -1.609471240248112e-20
0.1677870310286456 0.1218126617231796 0.003155085682942447 0.4901659382176446 -0.9467757328043017 -7.94841248474748e-21
0.1682116285044342 0.1245705371428571 0.003643372780099334 0.4741902419415659 -0.8762320464094038 -1.609471240248111e-20
0.1682116285044342 0.1245705371428571 0 0.4741902419415659 -0.8762320464094038 -1.609471240248111e-20
0.1687501288860373 0.1155346087255505 0.007299999999999997 0.5285433289417344 -0.9357239097444033 0
0.1698686774845282 0.1166589966803677 0 0.5230149126583089 -0.8228686357464734 -8.512742317911054e-21
0.1698686774845282 0.1166589966803677 0.0146 0.5230149126583091 -0.8228686357464731 -8.512742317911074e-21
0.1655871609107109 0.1367859457344966 0.01397476495268233 0.40544313096759 -0.9614694322922973 -2.970852399860637e-20
0.165828838204513 0.1373324666666667 0.0146 0.4024866064422501 -0.9363074781935123 -2.905243653201004e-20
0.1655871609107109 0.1367859457344965 0.0006252350473176749 0.4054431309675902 -0.9614694322922974 -2.970852399860639e-20
0.165828838204513 0.1373324666666666 0.0009031639351900502 0.4024866064422503 -0.9363074781935132 -2.905243653201003e-20
0.165828838204513 0.1373324666666666 0 0.4024866064422502 -0.936307478193513 -2.905243653201002e-20
0.1668864878242385 0.1264231680937704 0.002119460997874299 0.4627252828648005 -0.94942106209017 -2.228031295877188e-20
0.1678822423318539 0.1274241209140844 0 0.457425366386476 -0.8573375838852972 -1.921027748342424e-20
0.1678822423318539 0.1274241209140844 0.0146 0.4574253663864759 -0.8573375838852972 -1.921027748342424e-20
0.1668864878242385 0.1264231680937704 0.01248053900212571 0.4627252828648005 -0.94942106209017 -2.228031295877189e-20
0.1650434782608695 0.1416320269484438 0 0.3806813514283647 -0.9645768331796825 -2.379195474897435e-20
0.164192605775717 0.1492390817457738 0.0136214966420746 0.3419972929859459 -0.970414059055924 -1.463066359819499e-20
0.164192605775717 0.1492390817457738 0.0009785033579254028 0.341997292985946 -0.9704140590559243 -1.4630663598195e-20
0.1650434782608695 0.1416320269484438 0.004918815763465222 0.3806813514283647 -0.9645768331796825 -2.379195474897435e-20
0.1650434782608695 0.1416320269484438 0.0146 0.3806813514283647 -0.9645768331796825 -2.379195474897438e-20
0.1635274883971677 0.1500943961904762 0.0146 0.3391257965320594 -0.9672459052110205 -1.323704100897205e-20
0.1635274883971677 0.1500943961904762 0.01285661165674296 0.3391257965320594 -0.9672459052110205 -1.323704100897205e-20
0.1635274883971677 0.1500943961904762 0 0.3391257965320594 -0.9672459052110206 -1.323704100897204e-20
0.1636655099821997 0.1487092342612164 0 0.3456819276297898 -0.9652924784573668 -1.371844687652482e-20
0.1636655099821997 0.1487092342612164 0.0146 0.3456819276297899 -0.9652924784573667 -1.371844687652482e-20
0.1657696646754951 0.1380624441201796 0 0.3975686823461183 -0.9316481280581318 -2.773027281060456e-20
0.1654706233817106 0.137761841688441 0.0004912168889673371 0.4001811274464037 -0.9618584863106651 -2.945807333838567e-20
0.1657696646754951 0.1380624441201797 0.0146 0.3975686823461181 -0.931648128058132 -2.773027281060456e-20
0.1654706233817106 0.1377618416884411 0.01410878311103267 0.4001811274464038 -0.9618584863106653 -2.94580733383857e-20
0.1629257758808259 0.1607275679193886 0.002435357737050099 0.2879525324293659 -0.9736807812017754 -1.570605015905161e-35
0.1639265463955433 0.1512171589720117 0.001284471645125144 0.3327851671553887 -0.9725390234590404 -1.195647204257226e-20
0.1629257758808259 0.1607275679193886 0.0121646422629499 0.2879525324293659 -0.9736807812017754 -1.570605015905161e-35
0.1639265463955433 0.1512171589720117 0.01331552835487486 0.3327851671553887 -0.9725390234590403 -1.195647204257226e-20
0.1616590003618641 0.1628563257142857 0.0146 0.28119933765589 -0.9662768260622742 0
0.1616590003618641 0.1628563257142857 0.01070785041614384 0.28119933765589 -0.9662768260622742 0
0.1616590003618641 0.1628563257142857 0 0.28119933765589 -0.9662768260622742 0
0.1619808656363586 0.1597777247934879 0 0.2945470405236157 -0.9631458640076442 -9.29561508287856e-22
0.1619808656363586 0.159777724793488 0.0146 0.2945470405236157 -0.9631458640076442 -9.295615082878251e-22
0.1614607293938175 0.1720168027158863 0.007299999999999999 0.2374600849508657 -0.9706269931575097 0
0.1621297208693011 0.1657852943069416 0.003350821000303644 0.2667747506144353 -0.9778235253006734 0
0.1621297208693011 0.1657852943069416 0.01124917899969636 0.2667747506144353 -0.9778235253006735 0
0.1600100201986407 0.1756182552380952 0.0146 0.2249552995403584 -0.9554606020181252 0
0.1600100201986407 0.1756182552380952 0.008811523228436893 0.2249552995403584 -0.9554606020181252 0
0.1600100201986407 0.1756182552380952 0 0.2249552995403584 -0.9554606020181251 0
0.1605118371698142 0.1710629568226202 0 0.242812113177042 -0.9517390539281882 0
0.1605118371698142 0.1710629568226202 0.0146 0.242812113177042 -0.9517390539281882 0
0.1595999388796242 0.1818856891628226 0.00725670586176648 0.2003346490044609 -0.9739090223836553 0
0.1583821934535724 0.1883801847619048 0.0146 0.1663970251147024 -0.8999668516762191 0
0.1583821934535724 0.1883801847619048 0.006939522471608292 0.1663970251147024 -0.8999668516762191 0
0.1583821934535724 0.1883801847619048 0 0.1663970251147024 -0.8999668516762191 0
0.1591000563396895 0.1824057353480953 0 0.1865157203291772 -0.8901265498642921 0
0.1591000563396895 0.1824057353480953 0.0146 0.1865157203291772 -0.8901265498642921 0
0.1567386443098062 0.1949692037160494 0.007379339914888676 0.1576505114692491 -0.9776962132863256 0
0.1567724410337279 0.2011421142857142 0.0146 0.1243642829209157 -0.8626516225285062 0
0.1567724410337279 0.2011421142857142 0.005088307188787192 0.1243642829209157 -0.8626516225285061 0
0.1567724410337279 0.2011421142857142 0 0.1243642829209157 -0.8626516225285061 0
0.1576919315990929 0.1937521890496267 0 0.1466903695437246 -0.8408225958921288 0
0.1576919315990929 0.1937521890496267 0.0146 0.1466903695437246 -0.840822595892129 0
0.1546935230192295 0.2115461012222657 0.01190244852788602 0.1041158249197879 -0.9694459867762084 6.324596779185179e-21
0.1555163028061417 0.2139040438095238 0.0146 0.0920975792413177 -0.868529186240374 8.860702784046418e-21
0.1546935230192295 0.2115461012222657 0.002697551472113984 0.1041158249197879 -0.9694459867762084 6.324596779185181e-21
0.1555163028061417 0.2139040438095238 0.003643748227063003 0.09209757924131777 -0.868529186240375 8.860702784046412e-21
0.1555163028061417 0.2139040438095238 0 0.0920975792413177 -0.868529186240374 8.860702784046422e-21
0.1552047869289594 0.2040139898237699 0.003285504968303378 0.1276887414864733 -0.9713424102789189 -4.001959619972774e-36
0.1563738556119695 0.2051891616020048 0 0.1181166913908579 -0.8435708081041451 1.693482213587444e-21
0.1563738556119695 0.2051891616020048 0.0146 0.1181166913908579 -0.8435708081041449 1.693482213587439e-21
0.1552047869289594 0.2040139898237699 0.01131449503169662 0.1276887414864733 -0.9713424102789189 -3.557297439975799e-36
0.1539852419031741 0.2250200094268332 0.0127169718113497 0.06588582050865804 -0.9627729864905858 1.66242417076977e-20
0.1548894150364164 0.2266659733333333 0.0146 0.05956452364098495 -0.8720359117711947 1.304834961839035e-20
0.1539852419031741 0.2250200094268333 0.001883028188650296 0.0658858205086581 -0.962772986490587 1.662424170769771e-20
0.1548894150364164 0.2266659733333334 0.002922827291878886 0.05956452364098491 -0.8720359117711949 1.304834961839035e-20
0.1548894150364164 0.2266659733333334 0 0.05956452364098491 -0.872035911771195 1.304834961839035e-20
0.1542670083028279 0.2158332450704583 0.002207059548252084 0.09018437937202921 -0.9675593006050621 1.345679748438751e-20
0.1553672111680367 0.2169391915185297 0 0.08492147434914386 -0.860207023613902 8.915795226860538e-21
0.1553672111680367 0.2169391915185297 0.0146 0.08492147434914384 -0.8602070236139019 8.915795226860533e-21
0.1542670083028279 0.2158332450704583 0.01239294045174791 0.09018437937202922 -0.9675593006050622 1.345679748438751e-20
0.1537323444298113 0.2380361566692439 0.01300780390571694 0.04515347256548184 -0.9436647325281281 -1.638494720839792e-22
0.1545966861019611 0.2394279028571429 0.0146 0.04198582599718304 -0.8653277015107824 -1.085705907131799e-21
0.1537323444298113 0.2380361566692438 0.001592196094283069 0.04515347256548185 -0.9436647325281282 -1.638494720839434e-22
0.1545966861019611 0.2394279028571428 0.00258618901725538 0.0419858259971831 -0.8653277015107832 -1.085705907131751e-21
0.1545966861019612 0.2394279028571428 0 0.04198582599718302 -0.8653277015107814 -1.085705907131774e-21
0.153890960469422 0.2282171636121013 0.001774604539835399 0.0577497851777138 -0.9597178329738654 1.133668569271428e-20
0.1548694630534517 0.2292007744455732 0 0.05493805575843853 -0.8728221145355161 1.097876488760294e-20
0.1548694630534517 0.2292007744455732 0.0146 0.05493805575843858 -0.8728221145355162 1.097876488760296e-20
0.1538909604694221 0.2282171636121012 0.01282539546016461 0.05774978517771384 -0.9597178329738651 1.133668569271427e-20
0.1523478260869565 0.2456252356253923 0 0.04904426407749878 -0.9160393350782465 -2.611482283270579e-21
0.1512950734989848 0.2511315839231607 0.01338933452383255 0.05051437340604039 -0.8977139115935826 -4.300697815308701e-21
0.1512950734989848 0.2511315839231607 0.001210665476167455 0.0505143734060404 -0.8977139115935827 -4.3006978153087e-21
0.1523478260869565 0.2456252356253923 0.007089919925324406 0.04904426407749878 -0.9160393350782464 -2.611482283270577e-21
0.1523478260869565 0.2456252356253924 0.0146 0.04904426407749877 -0.9160393350782463 -2.611482283270601e-21
0.1481143588976074 0.2521898323809524 0.0146 0.0477222816156789 -0.890398072492899 -1.885590088709444e-21
0.1481143588976074 0.2521898323809524 0.009731512732248551 0.0477222816156789 -0.8903980724928993 -1.885590088709445e-21
0.1481143588976074 0.2521898323809524 0 0.0477222816156789 -0.8903980724928993 -1.885590088709447e-21
0.1503420466306964 0.2501735818007976 0 0.05273824550933103 -0.8970102478787998 -2.116328415226862e-21
0.1503420466306964 0.2501735818007976 0.0146 0.05273824550933105 -0.8970102478787997 -2.116328415226862e-21
0.1545910692017014 0.2416828567691577 0 0.04532878183083226 -0.8825871578558047 -1.08351757617168e-21
0.1537602822674425 0.2408477327314891 0.001624324607558861 0.04608086247689545 -0.9344989061162837 -4.751756563387859e-21
0.1545910692017014 0.2416828567691578 0.0146 0.04532878183083223 -0.8825871578558044 -1.083517576171718e-21
0.1537602822674425 0.2408477327314892 0.01297567539244114 0.04608086247689547 -0.9344989061162835 -4.751756563387896e-21
0.01269565217391304 0.2647614683225417 0 0.00343926744874471 -0.7181238586781616 0
0.01258609930851668 0.2648416371212401 0.01447401420479419 0.003393973674336447 -0.7180379736234295 0
0.01258609930851668 0.2648416371212401 0.0001259857952058111 0.003393973674336445 -0.7180379736234295 0
0.01269565217391304 0.2647614683225417 0.01438229888393984 0.00343926744874471 -0.7181238586781616 0
0.01269565217391304 0.2647614683225417 0.0146 0.00343926744874471 -0.7181238586781615 0
6.806536563369011e-05 0.2648833412055075 0.01452172482952126 2.213149869880045e-05 -0.007760766433762888 0
6.806536563369011e-05 0.2648833412055075 7.827517047874365e-05 2.213149869880173e-05 -0.007760766433763765 0
0 0.2648339649965283 0.0146 0 0 0
0 0.2648339649965283 0.01446523708213537 0 0 0
0 0.2648339649965283 0 0 0 0
0.01250686624616263 0.2647619904245705 0 0.003366513767383649 -0.7072614111600397 0
0.01250686624616263 0.2647619904245705 0.0146 0.003366513767383653 -0.7072614111600399 0
0.02539130434782608 0.2645651294558802 0 0.006586041783331037 -0.722667555071106 0
0.02516813133704597 0.2647274238245926 0.01434335103760287 0.006462117944393414 -0.7224514689156549 0
0.02516813133704597 0.2647274238245926 0.0002566489623971241 0.006462117944393413 -0.7224514689156549 0
0.02539130434782608 0.2645651294558802 0.01415768179544153 0.006586041783331036 -0.722667555071106 0
0.02539130434782608 0.2645651294558802 0.0146 0.006586041783331036 -0.722667555071106 0
0.01280661844337006 0.2648402163385372 0.01447238879012443 0.003455092864440462 -0.718095768017871 0
0.01280661844337006 0.2648402163385372 0.0001276112098755775 0.003455092864440468 -0.7180957680178711 0
0.02500956783984961 0.2645680325504345 0 0.006446066486940101 -0.7225310884177572 0
0.02500956783984961 0.2645680325504345 0.0146 0.006446066486940101 -0.722531088417757 0
0.03808695652173914 0.2642619290924524 0 0.009783793832403933 -0.7297111919322505 -2.88969879912154e-21
0.03768628228038966 0.2645489959530753 0.01413922462244811 0.009517309548951936 -0.7292251634816634 -2.550185928910175e-21
0.03768628228038966 0.2645489959530753 0.0004607753775518878 0.009517309548951946 -0.7292251634816634 -2.55018592891017e-21
0.03808695652173913 0.2642619290924525 0.01381081220195369 0.009783793832403914 -0.7297111919322506 -2.889698799121523e-21
0.03808695652173913 0.2642619290924524 0.0146 0.009783793832403933 -0.7297111919322505 -2.889698799121537e-21
0.02561960233484441 0.264722272093538 0.01433745731492893 0.006589492139071522 -0.7226411517548695 1.208810040847304e-36
0.02561960233484441 0.264722272093538 0.0002625426850710733 0.006589492139071525 -0.7226411517548698 6.04405020423652e-37
0.03740891093004977 0.264270176592205 0 0.009541578362267445 -0.7293399627562357 -2.576622558225334e-21
0.03740891093004977 0.2642701765922051 0.0146 0.009541578362267432 -0.7293399627562356 -2.576622558225327e-21
0.05078260869565217 0.2638527781868019 0 0.01291873199191076 -0.7395293675875632 -6.051866732782115e-21
0.05013739183234711 0.2643031767021842 0.01385800060719918 0.01242603626015259 -0.7385800818038757 -6.054643326068513e-21
0.05013739183234711 0.2643031767021842 0.0007419993928008178 0.01242603626015259 -0.7385800818038757 -6.054643326068517e-21
0.05078260869565217 0.2638527781868019 0.01334273226064438 0.01291873199191079 -0.7395293675875635 -6.05186673278214e-21
0.05078260869565217 0.2638527781868019 0.0146 0.01291873199191077 -0.7395293675875635 -6.051866732782117e-21
0.03850182016424623 0.2645347324764868 0.01412290681111684 0.009732895901961741 -0.7297354918111237 -3.255688695932912e-21
0.03850182016424623 0.2645347324764868 0.0004770931888831624 0.00973289590196174 -0.7297354918111236 -3.255688695932912e-21
0.04970810364353467 0.2638716474246032 0 0.01255671807320115 -0.7387094836764734 -5.534581056019411e-21
0.04970810364353466 0.2638716474246033 0.0146 0.01255671807320113 -0.7387094836764735 -5.534581056019387e-21
0.06347826086956521 0.2633504171872552 0 0.01600559108210938 -0.7520806848619157 -3.611176911024285e-21
0.06252177136667637 0.2639902790711968 0.01350003707167785 0.01520521812912014 -0.7504215414521385 -4.045062591172694e-21
0.06252177136667639 0.2639902790711968 0.001099962928322144 0.01520521812912012 -0.7504215414521386 -4.045062591172642e-21
0.06347826086956521 0.2633504171872552 0.01276801739643055 0.01600559108210937 -0.7520806848619156 -3.611176911024284e-21