/*--------------------------------*- C++ -*----------------------------------*\
| =========                 |                                                 |
| \\      /  F ield         | OpenFOAM: The Open Source CFD Toolbox           |
|  \\    /   O peration     | Version:  2206                                  |
|   \\  /    A nd           | Website:  www.openfoam.com                      |
|    \\/     M anipulation  |                                                 |
\*---------------------------------------------------------------------------*/
FoamFile
{
    version     2.0;
    format      ascii;
    arch        "LSB;label=32;scalar=64";
    class       volScalarField;
    location    "0.35";
    object      alpha.water_0;
}
// * * * * * * * * * * * * * * * * * * * * * * * * * * * * * * * * * * * * * //

dimensions      [0 0 0 0 0 0 0];

internalField   nonuniform List<scalar> 
2268
(
1
1
1
1
1
1
1
1
1
1
1
1
1
1
1
1
1
1
1
1
1
1
0.9999051561958177
1
1
1
1
1
1
1
1
1
1
1
1
1
1
1
1
1
1
1
1
1
1
0.9999050764347253
1
1
1
1
1
1
1
1
1
1
1
1
1
1
1
1
1
1
1
1
1
1
0.9999520883290871
1
1
1
1
1
1
1
1
1
1
1
1
1
1
1
1
1
1
1
1
1
1
0.9999999967325107
1
1
1
1
1
1
1
1
1
1
1
1
1
1
1
1
1
1
1
1
1
1
1
1
1
1
1
1
1
1
1
1
1
1
1
1
1
1
1
1
1
1
1
1
1
1
1
1
1
1
1
1
1
1
1
1
1
1
1
1
1
1
1
1
1
1
1
1
1
1
1
1
1
1
1
1
1
1
1
1
1
1
1
1
1
1
1
1
1
1
1
1
-1.139661173116313e-31
-7.364398157891623e-31
-5.307738365971242e-31
1.045941962210571e-32
3.484613418859581e-28
2.465082060891179e-25
7.838072870961852e-24
1.406786908983071e-23
2.467446079432962e-24
7.797498750125013e-26
3.853204608669181e-28
1.991478051976842e-31
9.687618765623826e-36
6.343334826106313e-41
-2.7775996216082e-37
-1.483179093534381e-37
-4.183365436840058e-38
-6.53547650347602e-39
-4.360797025939277e-40
-1.325334711953998e-28
-7.716187316119341e-28
9.221121316732575e-32
8.848827321169561e-27
1.261919593783762e-22
6.019993090251757e-20
1.524054428565001e-18
2.489865086243566e-18
4.866137414522381e-19
1.96030357822795e-20
1.094276615836397e-22
8.265231486842914e-26
5.325367354828989e-30
7.832336410938373e-35
6.358409911656793e-53
-3.471234216096019e-37
-1.571261291015177e-37
-3.416148999158819e-38
-3.051676827197039e-39
-3.866302648217546e-26
-2.114385676352093e-25
4.799641147054195e-26
2.553610428139771e-21
4.447257907811437e-18
4.691119620318143e-16
5.327984978660965e-15
8.394060688716047e-15
3.643488946812873e-15
5.346732547745027e-16
1.302299682144829e-17
1.694813327349337e-20
1.680941206336044e-24
2.734137143948921e-29
3.054810851546093e-34
-4.5975707055816e-53
-1.533204780170986e-37
-5.165723149997157e-38
-6.024142175813581e-39
-9.586943816491736e-25
7.160189649960253e-26
1.635735930788728e-21
9.908420269707776e-18
3.188585006776271e-15
8.879408179129466e-14
4.531779294813991e-13
7.529111095732294e-13
6.285517023735262e-13
2.594192261226273e-13
3.387743269833754e-14
4.878342979145399e-16
3.063443831080776e-19
6.060479117012329e-24
7.453023261428188e-29
7.66669537176925e-34
-1.234661047091571e-52
-4.323711614940972e-38
-8.022413592844999e-39
-2.897665616934589e-24
7.355230274077354e-23
1.358615129571879e-18
9.122461234150054e-16
8.543026933902066e-14
9.226313307337721e-13
2.652070123347689e-12
5.081641276942059e-12
6.8230530645609e-12
5.95840468873267e-12
2.637754754812404e-12
2.884986346089419e-13
2.78802053402207e-15
9.573500200271565e-19
1.310052782146642e-23
1.500353429846234e-28
1.316168135841106e-33
1.991583965666485e-39
-6.864751639104256e-39
-6.504925387222956e-24
2.989867818314874e-22
1.90905865066649e-17
1.059498975321983e-14
3.133634072910683e-13
1.40133064637203e-12
3.263120732682148e-12
7.327582223760935e-12
1.28668398825033e-11
1.712364841064176e-11
1.619637830531029e-11
7.89675592623855e-12
7.412777029495678e-13
4.773753773202536e-15
9.558875148147109e-19
1.23238487668353e-23
1.21065527637169e-28
7.973496092461718e-34
1.135152857072407e-39
-1.14889000719201e-22
-1.763045949444862e-20
-4.440274057158264e-20
3.296555205811118e-14
3.564558138354355e-13
2.530878273784594e-13
5.639296845731503e-13
2.086304920154012e-12
6.535230565337125e-12
1.603359819894262e-11
2.290337741167832e-11
2.392153068209209e-11
1.19591614605339e-11
8.388280324050569e-13
3.206360591150489e-15
3.294836611268237e-19
3.435215919170036e-24
2.450540683881265e-29
8.882200557330279e-35
-1.912233293975584e-23
0.1482391572692276
0.09970226215042421
9.456238587797381e-15
9.215141022119786e-15
9.455517823059446e-15
9.214507091585997e-15
9.455772008535521e-15
9.215349577994367e-15
9.455673153749047e-15
8.363037726790692e-12
2.077524052690099e-11
2.891211976945091e-11
1.087072894313522e-11
4.354057616034565e-13
8.142507736083942e-16
3.249214258694806e-20
2.452444930386311e-25
7.693320885147599e-30
1
1
1
1
1
1
1
1
1
1
1
1
1
1
1
1
1
1
1
1
1
1
0.9999272908175876
1
1
1
1
1
1
1
1
1
1
1
1
1
1
1
1
1
1
1
1
1
1
0.9999553239879533
1
1
1
1
1
1
1
1
1
1
1
1
1
1
1
1
1
1
1
1
1
1
0.9999999792811113
0.9865021272356271
0.9861613184777323
0.9833681028887535
0.9779821668268764
0.9693652055388086
0.9564827955028842
0.9382183448235107
0.9136864637223773
0.8825214523196603
0.8451288148266606
0.8029500920816388
0.7586303156347787
0.7159980835637172
0.6799890363240969
0.6551228151442536
0.6480669009081562
0.6714125687633959
0.7180215060279272
0.7940410814235852
0.8839616284994674
0.9895174521545471
1
1
0.3943606958361564
0.3928307541980192
0.3771712399621037
0.3512759340272719
0.3176438463149525
0.2779964846170881
0.2345588643947716
0.1898646348305931
0.1464542133593082
0.1065617282707325
0.07194537022393112
0.04373806218251163
0.02237758639741756
0.007690056428404744
9.521055914514048e-20
8.770199403788242e-14
0.003847242551126878
0.01918653437311032
0.05102358830240515
0.1066993026229742
0.1926421274492574
0.3257009257533532
0.486534738900766
-2.841735411804106e-21
1.750357005298276e-38
-1.223633010663593e-36
-4.152484270758873e-34
3.6011454756257e-32
3.265592060247381e-31
4.276999998689023e-30
-3.338680468722293e-30
-3.101102545246452e-31
1.996545538526868e-28
-4.965803378369001e-30
-1.537341232008935e-26
-2.685628119220504e-27
-2.21181451827868e-34
-4.061390870392703e-29
1.81202639460451e-13
1.357784397767703e-29
4.602166923032144e-30
3.284196327466154e-21
-1.079120575990311e-20
-1.073741456563653e-20
4.232591625662823e-19
0.004523667409683966
-1.08284455606958e-20
1.042509048778158e-20
1.872690346160732e-17
1.21393386926368e-15
1.590809734625678e-14
5.883831183221986e-13
3.168773650612817e-12
6.85372616148794e-12
6.642195913787517e-13
7.350997303599804e-10
6.355212428915349e-14
1.918198996031521e-24
9.841982863909897e-25
2.40568635120228e-16
5.911794353302812e-11
5.910597625238411e-11
1.498050193242691e-11
4.912483775590519e-13
1.487676947884665e-21
3.412622360101632e-21
0.0007315136924702171
0.0008019597192904738
0.00060154042558081
-1.132115306734343e-20
1.497397652668667e-18
7.392149275752967e-16
2.296868987687655e-14
2.097392753522976e-13
3.251293915619675e-12
7.470739157968056e-12
1.04356114323735e-11
5.623839796876636e-13
4.787037847005547e-10
3.96321831237687e-08
3.280889651723387e-06
2.985433750893306e-06
2.973913043444514e-07
1.04395363734347e-12
1.536630594569083e-10
9.100956208891982e-17
5.7931424192056e-17
6.796928345959874e-07
1.055620589458916e-06
8.70668949931959e-19
6.922319807915165e-13
1.441254381278606e-13
-3.927043131846747e-21
2.174859947910557e-17
4.420767937391192e-15
9.200228931219516e-14
1.054997809826772e-12
5.530292213904586e-12
5.554399959080364e-12
5.362885456053564e-12
5.16950871476957e-12
5.362885456053565e-12
6.472514277404928e-06
5.283433937381495e-05
5.821050277943577e-05
1.382363280481247e-05
1.302758961385328e-12
1.041981257098676e-12
1.388737755253006e-05
6.740107134735917e-05
7.67795160685545e-05
2.249783889917881e-05
9.307870942201616e-23
6.917254083819322e-12
1.099521701835373e-10
9.456571719891054e-21
7.915543411370029e-17
1.028938587916232e-14
2.639872837473019e-13
1.264628452651885e-11
5.554399959080364e-12
1.772364509140966e-09
3.290469224977335e-09
5.362885456052966e-12
5.563501800023048e-12
1.945161376275131e-05
6.910075012519461e-05
6.855511063101406e-05
3.473709081350062e-05
3.908667170143824e-05
5.437396363160279e-05
0.0001450581944150856
0.0001447234142237928
0.0001292024699843196
1.382431147573788e-05
8.706062271784386e-19
1.208388218939445e-11
1.311569367845927e-10
6.350450750131952e-20
1.403515271339654e-16
1.912080854962211e-14
1.814793149293106e-12
9.993852260101602e-11
5.741453623720708e-12
3.629208778021956e-08
6.282349671833528e-08
4.815163451977962e-07
2.152199542104673e-08
2.847618340517832e-06
1.818991230338461e-05
3.813406024250918e-07
5.065445596434192e-05
0.0001501914168178792
0.0001509905863652629
0.0001299403129288322
7.192106949252387e-05
5.508491913815301e-07
1.351134438368853e-15
1.528276096885107e-14
2.459162256559531e-14
2.484579489020214e-14
1.227461537098292e-19
2.107414755096182e-16
7.371924022894117e-14
1.211741723731044e-11
2.62702292347884e-10
6.002115240342052e-12
6.092966654754942e-08
1.381016189259818e-07
1.677564764559372e-06
8.561770420875015e-07
1.07070350715608e-24
-3.387596128961987e-32
-8.180289927151205e-26
1.881321876899714e-05
9.253572481298251e-05
8.027674793171378e-05
9.989203835984644e-23
-1.731136919266199e-39
3.952933100849326e-39
1.268652593283656e-15
5.417258385913216e-15
2.125837488930602e-14
1.048080412695425e-13
1.735786364842707e-19
6.811150753762832e-16
4.669484462189773e-13
3.267042721806826e-11
3.392591245821351e-10
6.194143887720563e-12
4.391648416521853e-08
3.620546174424043e-07
1.683963567971921e-06
2.130268474929612e-07
-3.813916276792017e-26
1.624066139044765e-14
3.5465678599572e-07
1.3468517942271e-13
4.846320096885035e-32
7.358589886542141e-39
2.655087358104259e-19
1.089159046828906e-17
5.581556078076922e-17
6.866099083344693e-16
2.362008493666626e-15
1.754863785549978e-14
1.153033973303642e-13
4.819612364541856e-19
4.506611227031316e-15
1.339328576414915e-12
4.440890532711741e-11
3.323127405775596e-10
6.332519286921864e-12
5.54500718682538e-08
5.639148622993969e-07
1.0624155964429e-06
1.486587186299586e-07
1.589538374508585e-33
1.477867639963591e-13
1.061794873862866e-12
2.447045726532792e-14
5.417729136135313e-18
1.367809270022818e-20
9.846501896569737e-19
1.344348760039064e-17
9.035241024954812e-18
2.180687465879016e-17
8.828838780432207e-16
1.567847902113801e-14
8.690386039039541e-14
3.802892473942614e-18
1.317155538371016e-14
1.941455956462351e-12
4.451755483018424e-11
1.840715005730503e-10
6.429913787559647e-12
1.159221052951582e-07
5.832678454789838e-07
1.831495969972251e-07
1.800350021109347e-07
-9.778349257945484e-31
1.255841360491923e-11
4.845014338260113e-12
1.720620202071523e-13
-4.857227458507882e-46
6.570471251502912e-21
1.912306915254516e-19
5.722861206341178e-19
3.148345667337223e-19
1.107184531065507e-17
6.810931823555579e-16
8.727979649281312e-15
3.242398732495353e-14
1.316617460175202e-17
1.864376191347549e-14
1.972303926745037e-12
2.170890205927869e-11
4.259995925418591e-11
6.495783691946266e-12
1.029731283535059e-07
5.116500536091965e-07
2.089850057037512e-07
2.226153666016993e-08
5.676067920487162e-28
1.451052589186734e-10
2.909778262333153e-11
1.992931172097471e-13
-8.256889694662543e-37
6.487622633453181e-23
2.165924382403816e-22
2.858420658721987e-21
4.429924940430888e-20
6.405631245545175e-18
2.459901468084688e-16
2.538110636092005e-15
1.141829823764776e-14
1.993038102608568e-17
1.69894181798442e-14
6.475037403482988e-13
4.962933822865634e-12
3.111211862452258e-11
2.948585112802768e-10
7.794805980933486e-09
2.642675289175251e-12
4.070637649204859e-08
1.722710297187003e-10
3.665273677800622e-10
4.228101123340564e-10
4.948789234933811e-11
6.242626894150764e-14
6.787352763543339e-19
1.849553072834072e-24
6.597416163124615e-23
8.982030623628072e-22
1.693936661427368e-20
2.188354441594732e-18
8.058984442346137e-17
8.460766263609632e-16
4.512185345722218e-15
1.76322390183653e-17
4.134211885039316e-15
7.213894438441319e-14
1.758366347908733e-12
3.515836167427186e-11
8.105740190676316e-11
2.642675289175236e-12
3.258733784561932e-12
2.642675289175239e-12
5.137336899128398e-10
9.137037389215583e-10
5.455866052315119e-10
5.24352253006362e-11
9.205755884730189e-31
1.915381404848601e-16
6.038861138187082e-25
9.0027156464216e-24
6.078866560654206e-23
2.840399735243431e-21
4.84892075513993e-19
1.772521729157799e-17
2.264181638241209e-16
1.652889040775644e-15
2.997560798934706e-18
3.335919666464048e-16
8.23141803217261e-15
8.116679098424309e-13
1.728482896949078e-11
5.004764090602907e-11
2.747765811677854e-11
5.920547987053117e-11
4.143999433475939e-10
9.5382060062719e-10
9.525839254717515e-10
5.197745256612317e-10
3.771107905864579e-11
1.158269394476547e-30
1.938590790684567e-15
-1.192656001801948e-26
3.178907574979772e-27
4.86213440748794e-25
2.887216479424102e-22
5.340217480262964e-20
2.354739077442101e-18
5.611196808455301e-17
5.075607701665143e-16
4.987441796177923e-20
1.117959060009151e-17
2.793259414669119e-15
1.452434394775348e-13
2.701241050288538e-12
1.191210570553892e-11
2.869838624630064e-11
1.05327424897876e-10
5.333347113722764e-10
8.278926229154724e-10
7.612475177005552e-10
1.90933217568026e-10
1.389648445583082e-11
3.546969130508093e-14
4.971799163660757e-15
-7.794651022710131e-27
1.072857924208842e-26
4.903108104373995e-25
6.157839545032004e-24
9.94838170264976e-22
2.879867780899075e-19
1.221184386816031e-17
9.448455850268591e-17
1.174603999843375e-22
3.522400681471164e-18
1.321132642584497e-15
1.921211362556825e-14
6.698488723820514e-14
1.783179227082497e-13
4.013738111774615e-12
7.367851224867523e-11
2.163579945494156e-10
2.692627677097468e-10
1.935062759294039e-10
3.293145346307988e-11
3.068306593051274e-12
1.096386643065996e-13
6.517493033040946e-15
-1.568883718019113e-44
4.20022771037381e-26
7.928348405771535e-25
3.553556095775612e-24
1.00141517359912e-22
3.443782674885546e-20
1.184622645733549e-18
8.522334616194017e-18
8.404990666134965e-25
3.474178361596535e-20
3.104516952798839e-17
1.543276215224071e-15
1.273161453140961e-14
6.176673651834616e-14
1.178653555988066e-12
1.136450940240318e-11
2.639126656770934e-11
2.964000105353216e-11
1.92130411915352e-11
3.989720060027672e-12
5.15106461036181e-13
1.008201374606732e-13
6.673946693284955e-15
1.851886035084416e-45
5.789338080558726e-26
5.040785227995579e-25
6.634608863187875e-25
4.076351026764292e-25
8.118582778664218e-24
5.485585046357019e-21
1.814205118384631e-19
1.869358977357773e-26
1.28360741368074e-21
1.328550719265672e-18
6.802404938133139e-17
5.631269771334521e-16
3.789086185145442e-15
9.57412821550481e-14
6.83687254626865e-13
1.25924920642962e-12
1.278854635570134e-12
8.234158564006713e-13
3.108195360902251e-13
8.293304308478939e-14
2.616520331691551e-14
5.072784666132379e-15
-3.883178723683656e-28
-8.166686336856275e-30
9.134249176777089e-29
4.785670276414765e-28
6.506848106602325e-28
4.16517708822163e-28
6.748273126378419e-29
3.539740703762048e-50
1.411158172515711e-29
9.813810006911693e-25
9.88879687892782e-22
7.874189965534903e-20
3.909353872304425e-18
2.138028755763599e-16
1.311055378567876e-15
1.628039098628332e-15
7.475001809118903e-32
6.505988023760352e-33
9.785436233141907e-16
8.31079067829951e-15
1.142827684874202e-14
4.692573943477023e-15
1.757909566489107e-15
-1.183886908036903e-28
-9.377821836726144e-30
-5.52471919432064e-31
2.6789076996827e-31
1.05135080474741e-30
1.086398197369018e-30
3.537183470400281e-31
3.157091498736775e-32
-3.079299217821334e-30
-3.59702427593727e-29
-2.038890572990995e-28
-7.264186414330052e-28
-1.818549673830764e-27
-3.283641097469387e-27
-3.660864283003243e-27
3.130806782071973e-37
5.389272812895097e-19
3.955552880662397e-17
2.785001196641913e-16
5.667135771100756e-16
8.148783553213651e-16
7.679295798042179e-16
1.466937656808352e-16
-2.956492999360358e-29
-2.078977731332278e-30
-1.265634023718997e-31
-8.689551402524505e-32
-4.69867309823827e-32
-1.826480377553953e-32
-4.534568347734683e-33
-6.264568265225917e-34
-2.367883944527914e-31
-3.176940001198249e-30
-2.066354312314515e-29
-8.492990659017861e-29
-2.483791337240558e-28
-5.508389869722026e-28
-9.629685492088906e-28
-1.359555252262757e-27
-1.572485895537188e-27
-1.500394330684464e-27
-1.182498823887625e-27
-7.612135813991207e-28
-3.843684494073064e-28
-1.454393337356805e-28
-3.776882885002324e-29
-5.741720653613646e-30
-3.610722852631792e-31
-1.08636986346354e-32
-8.376147847891162e-33
-5.480181928121404e-33
-2.851895054509727e-33
-1.120266400583125e-33
-2.914517920923821e-34
-9.735593739363595e-33
-1.50638834344509e-31
-1.126647051555903e-30
-5.33479549477504e-30
-1.799669633108787e-29
-4.60272423925947e-29
-9.25326151186101e-29
-1.492693490958475e-28
-1.950299248304331e-28
-2.063674308721269e-28
-1.752302791147995e-28
-1.171450585672227e-28
-5.974326302231162e-29
-2.211302868459811e-29
-5.473704278836064e-30
-7.796719256071563e-31
-4.511578051958544e-32
-7.67743267262405e-34
-6.422175064223557e-34
-4.780885397451706e-34
-2.921641049276198e-34
-1.411692791517803e-34
-5.029006255834874e-35
-2.339328149875237e-34
-4.042742577730022e-33
-3.363938131850924e-32
-1.769947772155711e-31
-6.618045700881416e-31
-1.868715582931969e-30
-4.125679024029573e-30
-7.261031030100028e-30
-1.027393393739519e-29
-1.16810991432353e-29
-1.057511707381971e-29
-7.483456117087602e-30
-4.015186436079843e-30
-1.556566719608235e-30
-4.027780995576083e-31
-6.010818951326902e-32
-3.673764424056022e-33
-4.538014170094663e-35
-4.077055929503512e-35
-3.422724808137936e-35
-2.404957519223623e-35
-1.362651438453493e-35
-5.897582446796575e-36
-1.391602004577395e-36
-2.662100403334345e-35
-2.440146268383099e-34
-1.411398845062584e-33
-5.786142447660356e-33
-1.78585149484526e-32
-4.296177390093554e-32
-8.217102530581452e-32
-1.261730673319853e-31
-1.557872415259959e-31
-1.537823303797037e-31
-1.197227650967109e-31
-7.181533474975467e-32
-3.197185246796085e-32
-9.929236165045413e-33
-1.917784515818479e-33
-1.751150711418287e-34
-2.21662365487463e-36
-2.127683124848796e-36
-2.000952759455234e-36
-1.59773552807834e-36
-1.041279968247929e-36
-5.262771341641553e-37
-2.408115779743796e-40
-6.728043980971874e-39
-8.90632533992139e-38
-7.396240389666213e-37
-4.322355579383448e-36
-1.885985253274848e-35
-6.355140767335852e-35
-1.685926852192711e-34
-3.554528506390496e-34
-5.966196096624236e-34
-7.929246020005188e-34
-8.235739081211715e-34
-6.534992856657625e-34
-3.81810837893964e-34
-1.544590505738925e-34
-3.859689543909381e-35
-4.546650667203934e-36
-8.817523983621749e-38
-9.094732751002021e-38
-9.524590664383179e-38
-8.562106936022154e-38
-6.33952770609592e-38
-3.684768484702461e-38
-1.489839285181101e-42
-4.392932047109742e-41
-6.105872930599677e-40
-5.305476772449614e-39
-3.23280693788114e-38
-1.465699401605028e-37
-5.114709649425139e-37
-1.400683180837463e-36
-3.039643563727904e-36
-5.23820065948569e-36
-7.133356499895345e-36
-7.581744972192139e-36
-6.153395223936371e-36
-3.67967150461475e-36
-1.527257157949093e-36
-3.941984456746817e-37
-4.976183731619168e-38
-2.83571030403916e-39
-3.202781058548819e-39
-3.719870204308414e-39
-3.736324541697545e-39
-3.111651293350973e-39
-2.055925747585806e-39
-2.652879717357732e-45
-8.077055695809674e-44
-1.155010647985891e-42
-1.030278365434794e-41
-6.431788327900109e-41
-2.982241285519643e-40
-1.062681892038927e-39
-2.968211108388819e-39
-6.56506865946961e-39
-1.152989092763214e-38
-1.601452897057396e-38
-1.739731369875176e-38
-1.449227786640859e-38
-8.966469124699961e-39
-3.916959322338249e-39
-1.118746569029793e-39
-2.062217522474393e-40
-7.314276146099991e-41
-9.279091714956831e-41
-1.188969839219828e-40
-1.323211132620854e-40
-1.228350089693876e-40
-9.15873951024144e-41
-1.122433234921783e-49
-4.136865850143548e-48
-7.177310771005699e-47
-7.800835503552138e-46
-5.958909292625271e-45
-3.396160791786079e-44
-1.49522047517546e-43
-5.192632273432679e-43
-1.4395031517549e-42
-3.202535983314249e-42
-5.71694166678271e-42
-8.145974723826186e-42
-9.169821294767667e-42
-8.035823770024666e-42
-5.412032481740937e-42
-2.886773057177229e-42
-1.585360110650868e-42
-1.539183362069482e-42
-2.218536160915788e-42
-3.125513459631329e-42
-3.837918733201549e-42
-3.963871353164291e-42
-3.348431421636156e-42
-4.856739569122776e-52
-1.864269056932521e-50
-3.352166853141264e-49
-3.764041176102064e-48
-2.962910284047808e-47
-1.736634373143459e-46
-7.851566819297959e-46
-2.797572205263075e-45
-7.955290345137491e-45
-1.816682926198222e-44
-3.335275971473243e-44
-4.906845044679239e-44
-5.746288784011813e-44
-5.320067453292612e-44
-3.92733480365844e-44
-2.539648014341287e-44
-2.028413280763715e-44
-2.690531608446257e-44
-4.403684027219152e-44
-6.818061594029194e-44
-9.243583990360226e-44
-1.067397139037056e-43
-1.035491814595457e-43
-1.139104180728249e-54
-4.487610664597378e-53
-8.269910053362381e-52
-9.513948171479154e-51
-7.673310115529578e-50
-4.610806139403039e-49
-2.139797944869639e-48
-7.843393256581605e-48
-2.30270259212373e-47
-5.459533774607895e-47
-1.049801511132882e-46
-1.640359236406702e-46
-2.088440436735826e-46
-2.193249788026544e-46
-1.999420074000503e-46
-1.86293359026539e-46
-2.322475866143142e-46
-3.950462500269685e-46
-7.240085235672414e-46
-1.233244325541205e-45
-1.854879793474275e-45
-2.424482207496328e-45
-2.766060768646595e-45
-1.283727164002667e-57
-5.239703915595655e-56
-1.002326047907545e-54
-1.201254007767031e-53
-1.014016568445493e-52
-6.415951603125793e-52
-3.160110383286421e-51
-1.242012280546117e-50
-3.962109603979062e-50
-1.038494694692469e-49
-2.257582227637697e-49
-4.106367161195105e-49
-6.327195297047484e-49
-8.485430451145214e-49
-1.0623672492874e-48
-1.438278480616745e-48
-2.427406292310194e-48
-4.859528708584978e-48
-9.893104821982009e-48
-1.864862135692778e-47
-3.150481648870919e-47
-4.763011759154404e-47
-6.575585138678202e-47
-7.498431866949247e-61
-3.405659682045164e-59
-7.319061214186803e-58
-9.960689633013242e-57
-9.650833651407545e-56
-7.082803473261046e-55
-4.087145435030127e-54
-1.899476210131202e-53
-7.223956603695079e-53
-2.272759705579347e-52
-5.962152336744938e-52
-1.314139599667953e-51
-2.465069885601372e-51
-4.060245566656585e-51
-6.34220440314782e-51
-1.076728094646134e-50
-2.18735437196047e-50
-4.987467384274143e-50
-1.131691605611027e-49
-2.392169585231743e-49
-4.633900785433762e-49
-8.309570942910686e-49
-1.411475594079637e-48
-1.054962889621546e-63
-5.387361152641562e-62
-1.292501145824032e-60
-1.95148943994222e-59
-2.085263440307132e-58
-1.678566887084763e-57
-1.057269280104672e-56
-5.341678953357818e-56
-2.201803838712257e-55
-7.494591565573628e-55
-2.127053913454233e-54
-5.086260213815605e-54
-1.043337355843151e-53
-1.913475682126118e-53
-3.436877295831279e-53
-6.90776087586037e-53
-1.645344309037974e-52
-4.274609719862302e-52
-1.095527532306239e-51
-2.647771028108344e-51
-6.004740928698162e-51
-1.292658050685957e-50
-2.673494135653e-50
-1.898936985966118e-66
-1.012294318944376e-64
-2.536532332173284e-63
-4.004736796192577e-62
-4.480558373780874e-61
-3.781798549488155e-60
-2.501753459242946e-59
-1.33006100994871e-58
-5.78271834553422e-58
-2.082546753285975e-57
-6.280773766168621e-57
-1.607168178839846e-56
-3.573374144552293e-56
-7.280974790620482e-56
-1.511134504712073e-55
-3.614878342141034e-55
-1.013502098805424e-54
-3.030683281150539e-54
-8.914204828308896e-54
-2.503682918156987e-53
-6.702443968073517e-53
-1.71760970013908e-52
-4.211925294807135e-52
-2.694536370868788e-69
-1.502364481854064e-67
-3.937064591200419e-66
-6.505008514106525e-65
-7.621488668852739e-64
-6.741581003030633e-63
-4.677879311711953e-62
-2.611633076670735e-61
-1.194217575694943e-60
-4.533566860368309e-60
-1.446554108072974e-59
-3.942512434823266e-59
-9.467495378215146e-59
-2.144630927431276e-58
-5.176284344529537e-58
-1.482873647627908e-57
-4.922960380063915e-57
-1.712514799039762e-56
-5.845676002243389e-56
-1.915450353303474e-55
-5.99633462430899e-55
-1.787947589064338e-54
-5.048591413140568e-54
-2.552248265145103e-72
-1.497111017885042e-70
-4.121071151767028e-69
-7.150421609068514e-68
-8.796101038799453e-67
-8.168043119824024e-66
-5.949791328566952e-65
-3.487741564731977e-64
-1.675465082898931e-63
-6.690346296993794e-63
-2.251587739686841e-62
-6.514780871700093e-62
-1.688026005553434e-61
-4.279464472443371e-61
-1.220306856264929e-60
-4.24408098106319e-60
-1.682235707449327e-59
-6.849752360580303e-59
-2.714621212328376e-58
-1.027930670521507e-57
-3.692921551939364e-57
-1.252079925106399e-56
-3.985702159803096e-56
-5.882467211561398e-76
-3.825828964897555e-74
-1.162779674120081e-72
-2.22230767250214e-71
-3.005530662913208e-70
-3.063371144836039e-69
-2.445545912653018e-68
-1.568811697067541e-67
-8.235503313812729e-67
-3.588973556356222e-66
-1.317291760004464e-65
-4.163751895085334e-65
-1.189881739878195e-64
-3.425066586572065e-64
-1.162789296885273e-63
-4.930884349538284e-63
-2.354016689242169e-62
-1.135126765900606e-61
-5.265838601858843e-61
-2.311257354887102e-60
-9.533859301431423e-60
-3.681134788086425e-59
-1.326739283594343e-58
0.9994904892899096
0.999490475045832
0.9996741693275224
0.9998108082780609
0.9999512188332431
0.9996766895398593
0.9996561015263702
0.9997937227023808
1
0.9999953518480451
0.9999778883270082
0.9999853748847904
1
1
1
1
0.57402159183354
0.6104716434626155
0.7128223809145733
0.8714908024780932
0.01243393916985746
0.02026452534183604
0.03112653580849317
0.04910531312225307
9.693932649823878e-05
-1.740562507140125e-20
-1.632293456767575e-21
1.06027401967454e-30
4.120591713935734e-23
4.039208239342908e-11
5.655177155087164e-11
5.818191469521189e-12
2.957412639745879e-10
4.928589142912365e-10
4.659684671872938e-10
2.374551989320503e-10
3.100766964723013e-10
4.996341234380256e-10
5.602736450875237e-10
5.516667615398451e-10
2.507983342684035e-14
2.530123100627704e-14
2.551918999271666e-14
2.574548515657695e-14
2.281536999246333e-13
3.728175005409745e-13
6.000059227188544e-13
8.852313704738073e-13
2.578664707044247e-13
4.163846327149923e-13
6.271902683272755e-13
9.557433512659677e-13
1.726456543189759e-13
2.475496428494974e-13
3.201537894734485e-13
4.837757901819831e-13
5.960732112717062e-14
8.721851444918467e-14
1.242925780562576e-13
1.863429361341428e-13
2.463308247867958e-14
4.171174099698021e-14
6.534699510536351e-14
9.512530157229013e-14
1.158710089767883e-14
2.08329634398243e-14
3.179901896272651e-14
4.646671012449015e-14
4.648957134150809e-15
7.845314224773246e-15
1.193240090130609e-14
2.118726818516782e-14
1.278289305453931e-15
2.049168139400665e-15
3.52071795356277e-15
8.427083728124557e-15
2.186212222616664e-16
3.543076436260573e-16
5.716268186218669e-16
1.369804687081285e-15
2.109215159372288e-17
3.096831396951421e-17
3.653758965942786e-17
4.776404899440673e-17
5.33003597224985e-19
4.47355104960445e-19
7.753960851014829e-20
2.974603435934402e-34
-3.012181919931392e-36
-6.016448597124034e-36
-1.266833137171634e-36
-7.415888156512409e-36
-1.229798164446975e-35
-8.713252926116844e-36
-1.414789552070825e-36
-4.805745268014921e-38
-4.254461965525854e-35
-1.06867675190716e-35
-1.621734435774239e-36
4.029743562200556e-44
-2.628839435002906e-35
-7.929791104976502e-36
-1.676015813557732e-36
7.551016369586615e-49
-1.045527985779098e-35
-4.640876673337019e-36
-1.650995651263381e-36
-3.764221489407212e-37
-1.754483116876522e-36
-1.008560243128486e-36
-5.73812533362355e-37
-3.238498624240574e-37
-1.887429822287357e-37
-1.142778376003451e-37
-6.822003964985435e-38
-4.051140550143786e-38
-1.558775358365383e-38
-9.920332870736016e-39
-6.195561167019385e-39
-3.83227679144369e-39
-1.012908506401503e-39
-6.801124155146439e-40
-4.474368234680356e-40
-2.912533699090866e-40
-5.247670114323603e-41
-3.759075094891507e-41
-2.647700458950328e-41
-1.852746338976615e-41
-2.266604565169902e-42
-1.768122794525714e-42
-1.367844198315727e-42
-1.059173210831193e-42
-8.504200514660157e-44
-7.405944767384581e-44
-6.454348359517725e-44
-5.654561971638398e-44
-2.84382882203373e-45
-2.8243537998329e-45
-2.813054638733894e-45
-2.803444714029259e-45
-8.605414334584792e-47
-9.794256265744409e-47
-1.109737081502756e-46
-1.244495730452912e-46
-2.319503809505133e-48
-2.989213546832652e-48
-3.793489510186514e-48
-4.716544502331235e-48
-5.321571330156046e-50
-7.632722929536091e-50
-1.069000160292792e-49
-1.457513386957576e-49
-9.810874920024375e-52
-1.54598655142271e-51
-2.366524617803622e-51
-3.514467837396623e-51
-1.339959206157575e-53
-2.298413447592299e-53
-3.819944312169749e-53
-6.150958076571163e-53
-1.185843493121062e-55
-2.202909826481179e-55
-3.96133199023957e-55
-6.900868635592118e-55
-4.456096989631181e-58
-9.047223128097551e-58
-1.776911667608571e-57
-3.380952047001007e-57
0.9681372680849639
0.9995943861421789
0.8850405895477356
0.3660632713767926
0.2394346215473966
0.3118256486299769
0.3272346845078695
0.2001694455822627
0.04057661473226349
0.0004461536301238696
5.969820171453673e-13
6.1056900821687e-13
2.903514977059171e-11
3.385973778393713e-11
1.2137825532931e-11
5.528963395004348e-13
1.408069663440208e-15
8.765957855209119e-20
5.44649200233077e-25
1
1
1
1
1
1
1
0.9848882242899054
0.7728062441500612
0.4331335616451343
0.1729754558652942
0.02491274254496055
3.028201797872029e-11
3.166579817915633e-11
5.029997262280836e-11
2.024981131704405e-11
1.140333760316344e-12
3.867452968165096e-15
2.502056679064127e-19
0.9999951677326366
1
1
1
1
1
1
1
1
1
0.9975443860814038
0.7160300990235766
0.1923732564575555
0.001575499637407593
5.146198301413238e-11
6.071910394650446e-11
2.210393942189867e-11
9.202173726489029e-13
1.519875884006721e-15
1
1
1
1
1
1
1
1
1
1
1
1
0.9791372119371141
0.4545412015954793
0.007947273887949812
3.122930644253732e-11
2.970146558250718e-11
9.82881537912582e-12
2.342660757479909e-13
0.8552760126544711
0.7796289770849707
0.7777078056541786
0.7760847198874494
0.7417618651747629
0.6942486582842171
0.7171744880434493
0.831919205697045
0.9573431081531242
0.9987920114310808
1
1
1
0.9959927460605666
0.4561363275864482
0.003671028171020902
9.106238223327599e-12
1.225696779410618e-11
1.783429573711016e-12
0.04698862661320235
0.03074003706362742
0.01567480657406067
0.003947892218427886
5.920082820152548e-21
8.043808746708667e-30
-3.01502268489365e-30
0.04452603417897243
0.2405542053856136
0.5389576090191728
0.8356423723345616