/*--------------------------------*- C++ -*----------------------------------*\
| =========                 |                                                 |
| \\      /  F ield         | OpenFOAM: The Open Source CFD Toolbox           |
|  \\    /   O peration     | Version:  2206                                  |
|   \\  /    A nd           | Website:  www.openfoam.com                      |
|    \\/     M anipulation  |                                                 |
\*---------------------------------------------------------------------------*/
FoamFile
{
    version     2.0;
    format      ascii;
    arch        "LSB;label=32;scalar=64";
    class       surfaceScalarField;
    location    "0.35";
    object      alphaPhi0.water;
}
// * * * * * * * * * * * * * * * * * * * * * * * * * * * * * * * * * * * * * //

dimensions      [0 3 -1 0 0 0 0];

oriented        oriented;

internalField   nonuniform List<scalar> 
4432
(
3.988840271091381e-06
-3.988840303816127e-06
7.991467003321773e-06
-4.002626765318519e-06
1.194819724096189e-05
-3.956730270328618e-06
1.587717812148204e-05
-3.928980912794546e-06
1.975850087908252e-05
-3.881322789008396e-06
2.355657243201626e-05
-3.798071582931817e-06
2.723996284551848e-05
-3.683390441523001e-06
3.0775762487106e-05
-3.535799667084174e-06
3.412423691255006e-05
-3.348474447962563e-06
3.723692455750277e-05
-3.112687664170342e-06
4.005510149046947e-05
-2.818176948617003e-06
4.250756092575514e-05
-2.452459446807725e-06
4.450749149065345e-05
-1.999930570693407e-06
4.594783005688971e-05
-1.440338562558857e-06
4.66946095964436e-05
-7.46779519448169e-07
4.659334535039285e-05
1.012642895020775e-07
4.54197659520051e-05
1.173579484511489e-06
4.291060167959097e-05
2.509164455489045e-06
3.872751315626567e-05
4.183088938513411e-06
3.249926037217106e-05
6.228253819367503e-06
2.394858326538951e-05
8.550680167619143e-06
1.284926284930305e-05
1.10993326391665e-05
1.284862380702219e-05
4.037157742150142e-06
-8.025998056768225e-06
8.066072092967261e-06
-8.031541125712532e-06
1.20711912624065e-05
-7.961849447802077e-06
1.604630587505269e-05
-7.904095531533821e-06
1.996704251574245e-05
-7.802059433427217e-06
2.380500800095568e-05
-7.636037069218861e-06
2.753084349960206e-05
-7.409225938367936e-06
3.11116931426795e-05
-7.116649305451976e-06
3.450834712068806e-05
-6.745128418697538e-06
3.767335011148102e-05
-6.277690645925515e-06
4.054932641377137e-05
-5.694153241224941e-06
4.30669761213485e-05
-4.970109144792499e-06
4.514246278036111e-05
-4.075417219070286e-06
4.667395806437596e-05
-2.971833829892065e-06
4.753754327264156e-05
-1.610364694027957e-06
4.753772542678553e-05
1.010822036543679e-07
4.650394738000716e-05
2.207357662927612e-06
4.412757484929637e-05
4.885537236266905e-06
4.005924171748855e-05
8.251422568468408e-06
3.387058409411999e-05
1.241691255992838e-05
2.513972570785223e-05
1.728154168453898e-05
1.359169319445732e-05
2.264737768783852e-05
2.643968568994034e-05
4.029222652490534e-06
-1.205522056594078e-05
8.060388246141893e-06
-1.206270656922931e-05
1.208159135986831e-05
-1.198305240378999e-05
1.607030458752526e-05
-1.189280859355016e-05
2.000134728927251e-05
-1.173310196191615e-05
2.385070366762271e-05
-1.148539326745228e-05
2.759092478284748e-05
-1.11494468679637e-05
3.118966360497252e-05
-1.07153879388583e-05
3.460831131559709e-05
-1.01637759416031e-05
3.78002576063017e-05
-9.469636756099635e-06
4.07091341591039e-05
-8.603029628862837e-06
4.326692298000279e-05
-7.52789782438465e-06
4.539148990487429e-05
-6.199984031731312e-06
4.698246177586462e-05
-4.562805615069277e-06
4.791128050333963e-05
-2.539183347074666e-06
4.804757616940034e-05
-3.521334956990868e-08
4.715164887526945e-05
3.103285177302177e-06
4.497601030903969e-05
7.061176172584105e-06
4.115344335364328e-05
1.207399014840794e-05
3.52066199264517e-05
1.836373720010887e-05
2.656221493866299e-05
2.592594985767094e-05
1.47003062237899e-05
3.450929942489404e-05
4.114126634594237e-05
4.034200259298366e-06
-1.608942019013051e-05
8.075286624897886e-06
-1.610379227702518e-05
1.21149298205932e-05
-1.602269491678744e-05
1.61206087063479e-05
-1.589848677306116e-05
2.00679461457161e-05
-1.5680438673707e-05
2.393588981752624e-05
-1.535333619354424e-05
2.769877970993547e-05
-1.491233600175731e-05
3.132531472423124e-05
-1.434192219053487e-05
3.477790129342154e-05
-1.36163617586033e-05
3.801110377243043e-05
-1.270283851495216e-05
4.096994152570715e-05
-1.156186672311951e-05
4.358821344951615e-05
-1.014616918324826e-05
4.578647246642841e-05
-8.398242606631477e-06
4.746898065609534e-05
-6.245313500523864e-06
4.852041299525848e-05
-3.590615507918355e-06
4.878574994660832e-05
-3.005501102247681e-07
4.808350797254085e-05
3.80552756318971e-06
4.61515070407256e-05
8.993177756244064e-06
4.263260590882424e-05
1.559289221689884e-05
3.70077909587966e-05
2.398855363089432e-05
2.853678667332032e-05
3.43969575247378e-05
1.632137980336952e-05
4.67247201290419e-05
5.746266089710278e-05
4.046927593332434e-06
-2.013634601976785e-05
8.104413039342143e-06
-2.016127590360752e-05
1.216639215653413e-05
-2.00846721550383e-05
1.619379333633203e-05
-1.992588601963228e-05
2.01642108021873e-05
-1.965085415716646e-05
2.405892060034527e-05
-1.924804396685665e-05
2.785398328386978e-05
-1.870739662979795e-05
3.151953726330915e-05
-1.800747410493892e-05
3.501938322706725e-05
-1.71162056831132e-05
3.830957385623205e-05
-1.599302718486631e-05
4.133683029322772e-05
-1.458912135567986e-05
4.403713677262885e-05
-1.284647410137973e-05
4.633420950187506e-05
-1.069531410465494e-05
4.813707379880975e-05
-8.048176966413261e-06
4.933552593701397e-05
-4.789067242366996e-06
4.979289163276052e-05
-7.579155128001436e-07
4.933385720249558e-05
4.264562773445521e-06
4.771893599742486e-05
1.060810025944045e-05
4.460157671738267e-05
1.871025323064491e-05
3.942687689164752e-05
2.916325571809983e-05
3.126153724339659e-05
4.256230120757034e-05
1.867647598759573e-05
5.930979665475411e-05
7.613911486295997e-05
4.067257438658001e-06
-2.420359964830486e-05
8.147130894427999e-06
-2.424114544153619e-05
1.223520713375857e-05
-2.417274436512835e-05
1.628939009652457e-05
-2.398006485065204e-05
2.028972308976563e-05
-2.365118292280203e-05
2.421958128417079e-05
-2.317789784686535e-05
2.805682552347953e-05
-2.25446364872239e-05
3.177337221712399e-05
-2.17240163880887e-05
3.533478528373692e-05
-2.067761438004934e-05
3.869894051824318e-05
-1.935717820068331e-05
4.181456815310042e-05
-1.77047450778617e-05
4.462012739812243e-05
-1.565202992716209e-05
4.704283280197871e-05
-1.311801677572031e-05
4.899724468280695e-05
-1.000258698795749e-05
5.03830283041313e-05
-6.174850036741057e-06
5.107262549811649e-05
-1.447512384975321e-06
5.091225232671379e-05
4.424937228998243e-06
4.968951143416231e-05
1.183084367886826e-05
4.708949333218559e-05
2.131027482882166e-05
4.255061739693568e-05
3.370213587634107e-05
3.495039565883645e-05
5.016252879804615e-05
2.215989714409847e-05
7.210031321116633e-05
9.82989879451375e-05
4.098559049263719e-06
-2.830215183765311e-05
8.206331188418106e-06
-2.834891055187393e-05
1.232364342886748e-05
-2.829004940523606e-05
1.640907395948982e-05
-2.80654880143425e-05
2.044525154918315e-05
-2.768735298123449e-05
2.441776019215418e-05
-2.715039880005358e-05
2.830648024489593e-05
-2.64333487158039e-05
3.208542352978416e-05
-2.550295177509189e-05
3.5722269944484e-05
-2.431445294119458e-05
3.917706100867667e-05
-2.281196164925811e-05
4.240083796931977e-05
-2.092851493526904e-05
4.533470977088681e-05
-1.858589547189783e-05
4.790923313843661e-05
-1.569253507132381e-05
5.004353638156886e-05
-1.213688669932886e-05
5.164399383296866e-05
-7.775305946949096e-06
5.260894066705804e-05
-2.412459199626954e-06
5.279798423126092e-05
4.235895202154893e-06
5.204366425130433e-05
1.25851679350637e-05
5.009505386390912e-05
2.325889187633482e-05
4.644333713273521e-05
3.73538609422665e-05
3.985691792009058e-05
5.674895818240716e-05
2.749531237369255e-05
8.446194249221541e-05
0.0001257942746882647
4.146970151658831e-06
-3.244910265187784e-05
8.283532674682439e-06
-3.248545333983155e-05
1.243585157694119e-05
-3.244234814438057e-05
1.655726060841947e-05
-3.218687644467782e-05
2.063515127679555e-05
-3.176522260357056e-05
2.465792083551705e-05
-3.117314686705872e-05
2.860761382473154e-05
-3.03830198128811e-05
3.24606406901795e-05
-2.935595648186591e-05
3.618718097554991e-05
-2.804097107779781e-05
3.974987174996147e-05
-2.637463075086597e-05
4.310258706049478e-05
-2.428120971966157e-05
4.618973563922987e-05
-2.167302551644669e-05
4.894598047556775e-05
-1.844876423650634e-05
5.129559501288121e-05
-1.448648931734501e-05
5.315025631155816e-05
-9.629960429586716e-06
5.44119531903083e-05
-3.674155483840519e-06
5.498173967201806e-05
3.666108107208169e-06
5.474918193924453e-05
1.281772829030991e-05
5.357515479697225e-05
2.44329272623523e-05
5.111474570663107e-05
3.981428605279453e-05
4.620296519211236e-05
6.166076424332406e-05
3.574332531022714e-05
9.492163035113158e-05
0.0001615375834939602
6.037714880459839e-36
-1.003479158634493e-36
4.6520166768785e-36
-7.736297747103057e-37
-1.229320122638713e-37
-6.746118776110007e-37
-7.942691985284954e-36
5.699833928206319e-38
-1.425143090512264e-31
1.348826713402657e-33
-7.672687282748035e-29
-6.464935457508722e-30
-1.918292747357022e-28
-3.968612522576771e-27
-1.76194280440897e-29
-1.163747039081833e-26
4.769703402978107e-30
-3.037212805750163e-27
8.075916435608835e-32
-1.473986416837511e-28
9.801627501797874e-35
-8.471685847676879e-31
8.253098836261533e-39
-6.531626204667868e-34
3.828020705944671e-43
-3.23244265393316e-38
8.035399661284937e-45
-1.870886808741558e-43
-1.231412919246539e-41
-5.486160735599711e-43
-5.808317604452847e-42
-9.991134546270866e-43
-1.215554831581289e-42
-4.644137029289377e-43
-1.002957210687513e-43
-9.43159368295269e-44
-6.893904192077999e-45
7.825844343311701e-33
-2.596302773869946e-33
-1.157281185525582e-36
-1.563602855949433e-33
-5.625077928297008e-35
1.34526564404491e-36
-4.679740181062483e-30
1.877549654047212e-31
-4.812460446575845e-26
1.959451570982163e-27
-1.765054645739995e-23
-1.714073305270447e-24
-3.499029234693461e-23
-7.063044248170612e-22
-3.207041541095485e-24
-1.81883567801657e-21
1.145494279660149e-24
-5.369121939295847e-22
2.644767013494807e-26
-3.316761868296508e-23
3.298451430334457e-29
-1.998475527447599e-25
5.558310191462587e-33
-2.711188254315021e-28
2.482460781555078e-37
-2.111115685695316e-32
3.785799934143964e-42
-1.415485215497221e-37
5.503543819360197e-45
1.08169427052824e-42
-1.433284493695284e-41
-4.651582842359949e-42
-4.909824182719074e-42
-3.540760519198425e-42
-5.718882222516427e-43
-1.00750197665765e-42
-1.000158510101721e-43
2.636916319182138e-30
-1.265853103681086e-30
-6.447433382003255e-31
-4.333604026430914e-31
-1.739834764125303e-29
5.529697058267637e-32
-7.381639213036283e-25
8.158236180563881e-26
-8.886929376205433e-22
1.051203109164432e-22
-6.745798884914047e-20
-8.569401538768401e-21
-1.150225954906927e-19
-1.356770547659497e-18
-1.916055076469253e-20
-3.203917854316693e-18
1.645965448058846e-20
-2.077027829373473e-18
2.258380226936497e-21
-4.631696128449927e-19
1.662087368650018e-23
-1.9874120964955e-20
1.960753442891504e-27
-3.963959852303461e-23
7.913545811129575e-32
-5.520977488317803e-27
1.376828687613987e-36
-5.216858306361239e-32
1.421295944424162e-41
6.367661250827688e-39
2.667398986456107e-56
7.054224671533365e-42
-4.894241219620682e-42
-5.139215596108787e-42
-9.017830095541016e-43
-2.313889177102917e-42
-3.034317902447349e-43
-1.238751130292279e-30
-4.612561675669931e-29
-1.331791702740772e-29
-4.874804023526661e-30
-3.422363630200496e-25
-2.867570428088607e-25
-2.021794066819814e-21
4.37832933424128e-22
-4.013326836422811e-19
1.047261192530816e-19
-5.745694278544496e-18
-9.611153070908333e-19
-9.430609288500942e-18
-5.052684173986419e-17
-1.783023825616665e-18
-1.268538975425891e-16
4.962311911254315e-18
-1.593279427639288e-16
2.764110828107606e-18
-1.03586215466234e-16
2.015183521656507e-19
-2.336662345303896e-17
5.072286464605947e-22
-5.914410188165018e-19
2.073605629415239e-26
-5.194298520388921e-22
3.286406643955959e-31
-1.055748824632953e-26
3.648753377552746e-36
1.952723293595311e-33
3.398731153077207e-41
8.161648788390038e-38
6.528436023732641e-44
7.183963808947444e-42
-7.789613721558774e-43
-2.58243152962952e-42
-5.484998413334737e-43
-1.819384173286627e-27
-1.618747561574912e-28
-3.530069695874346e-26
-2.155703676942196e-27
-8.905763521905303e-23
-1.894887908133358e-22
-1.307396110716515e-19
5.111507255982816e-20
-7.121704934499716e-18
3.173395715535307e-18
-2.796052144507798e-17
-5.37979730428801e-18
-3.338901153646943e-17
-1.011158296577059e-16
7.485391672360004e-18
-3.15008816572184e-16
7.854232237777625e-17
-6.438558275676376e-16
1.214546565245158e-16
-9.142848348912826e-16
4.801540662725506e-17
-6.79212342261084e-16
2.038401693498505e-18
-1.599880942913633e-16
2.47881522953647e-21
-2.494460337547852e-18
4.935884194985157e-26
-7.905929815391911e-22
6.726100026930184e-31
4.081518379463537e-28
7.065462774165896e-36
1.987374587872516e-32
4.76781466650846e-41
3.070800054199982e-37
1.603554361542516e-43
4.605285381493822e-42
-5.908135329658637e-43
-8.280022698132344e-27
-3.732927556218536e-28
-3.751047635072562e-25
2.031105755072702e-25
-1.764123272162819e-21
1.496934509516456e-22
-9.705520383525737e-19
6.510737572081187e-19
-9.178044919162296e-18
6.895309880168319e-18
-1.084786728274021e-17
-4.824733406232983e-18
1.122710832240301e-17
-3.864747765252096e-17
9.595119606237773e-17
-1.742793446581803e-16
2.349286806850433e-16
-5.515106303327434e-16
4.486168923322303e-16
-9.451593225010082e-16
5.892742000546636e-16
-1.500215874316992e-15
2.217153269643354e-16
-1.468318384960505e-15
5.751757679685152e-18
-2.820976424974008e-16
3.334704565079252e-21
-2.049715600689667e-18
5.205648406726777e-26
3.448397956138836e-23
6.171339273420694e-31
1.963061300785737e-27
4.696897350711474e-36
3.422857832808305e-32
1.697683427981262e-41
3.075235726010702e-37
1.49870860893495e-42
4.036843625154153e-26
-1.253015792540622e-26
-1.055660124139566e-25
0
2.111379027854766e-22
0
-6.338224601867178e-19
1.95094830236928e-18
2.177088715368343e-18
7.338230448649702e-18
4.723196812456306e-18
2.794206856736551e-18
1.878688475663227e-17
1.171324621783505e-17
8.427478393752861e-17
5.38257216113721e-17
2.966685810687904e-16
1.976650759177706e-16
6.916298315559621e-16
4.95080551916786e-16
9.959369822040625e-16
-8.340394160832511e-16
1.281364286988508e-15
-1.39888027195817e-15
4.492606441153846e-16
-1.664076495514003e-15
5.888739923645426e-18
-1.565282705242569e-16
1.472058901172654e-21
1.108366617922489e-19
1.84567507829438e-26
6.48883442726012e-23
1.483061217240811e-31
1.187839797941431e-27
5.770558133418981e-37
1.148254725877366e-32
4.75229042802937e-38
0
0
6.645110325843663e-06
-1.083518447708128e-06
2.793747099028771e-06
-2.002431385634019e-06
3.820890263736305e-19
2.793803548207946e-06
4.462657930256224e-19
7.964165549904802e-18
5.003027482904599e-19
2.051513798249915e-18
5.581971392089036e-19
1.235312850275672e-17
5.325444574184348e-19
5.31614818355744e-17
5.444310247950563e-19
1.983420819620142e-16
4.729011480108216e-19
4.944506654598103e-16
6.883478750556254e-16
3.831625889284943e-16
1.219044992641183e-15
1.011718888764019e-15
2.064622027070611e-15
-1.88359120005245e-15
3.861107405189907e-16
-1.098366282295746e-15
1.958569800144201e-18
1.439908202047199e-17
1.913818856518e-22
1.597050390927667e-19
1.607274935426491e-27
1.532897507233255e-23
6.720774245609642e-33
1.40528946574794e-28
2.530980259695048e-33
8.888587458105792e-06
-4.133764056477101e-05
1.783946227224513e-05
-4.143627775684513e-05
2.672938338227806e-05
-4.133221779426657e-05
3.557919714367223e-05
-4.103663760510182e-05
4.43615795586135e-05
-4.054755120548579e-05
5.304704292400426e-05
-3.985855516028611e-05
6.16035267950723e-05
-3.893944746343293e-05
6.998788122193179e-05
-3.774025392715311e-05
7.814300495171043e-05
-3.619603787675961e-05
8.599606111629988e-05
-3.422763136234664e-05
9.345679024324433e-05
-3.174188647634096e-05
0.0001004175884852409
-2.86337767524771e-05
0.0001067567483858351
-2.478788420916612e-05
0.0001123458544052365
-2.007556345910377e-05
0.0001170583890992223
-1.434247400137289e-05
0.0001207666676363383
-7.3824313422313e-06
0.0001235955615677889
8.372126675315948e-07
0.0001256372191756488
1.077608979051455e-05
0.0001273930316321564
2.267715666530294e-05
0.0001298965358842342
3.731084656929732e-05
0.0001362536767956964
5.530371163058451e-05
0.0001548290717525866
7.63463899121134e-05
9.90870923104904e-05
0.0002171812915877984
9.065318689137136e-06
-5.040288731583109e-05
1.814809523547859e-05
-5.051898167794695e-05
2.721004154399254e-05
-5.039408989561016e-05
3.624024155801072e-05
-5.00667618292437e-05
4.52316976635609e-05
-4.953892971739592e-05
5.417031181195264e-05
-4.879708983845727e-05
6.303401551826601e-05
-4.780307021417901e-05
7.178985010187045e-05
-4.649600697179543e-05
8.03910435934386e-05
-4.479715084221275e-05
8.877419649227934e-05
-4.261070698925081e-05
9.685726946144437e-05
-3.98248880462282e-05
0.0001045395982532766
-3.63160430878781e-05
0.0001117089685843473
-3.195720180044419e-05
0.0001182678754956723
-2.663442423422411e-05
0.0001241812032821835
-2.025576221679547e-05
0.0001294807457799328
-1.268195180984364e-05
0.0001337701656083595
-3.452226762872772e-06
0.0001375270481999835
7.019188804102805e-06
0.000141618936405731
1.858528290679971e-05
0.0001476672126728112
3.126262600032902e-05
0.0001584266438501952
4.454437742146546e-05
0.0001761145017599809
5.865868826664256e-05
7.386265572130762e-05
0.0002013276645855328
9.27651751678372e-06
-5.967931982368468e-05
1.849182724751853e-05
-5.973420507278086e-05
2.770581790796222e-05
-5.960799236068843e-05
3.690463875027922e-05
-5.926549416396781e-05
4.609005339260471e-05
-5.872425542631598e-05
5.526054344432349e-05
-5.796749115486116e-05
6.440395849864364e-05
-5.69463979537438e-05
7.349680404438518e-05
-5.55887681072749e-05
8.250295679273498e-05
-5.380322361793583e-05
9.136933229989099e-05
-5.147700793694274e-05
0.0001000219024844863
-4.84773896770145e-05
0.0001083588462191327
-4.465292637508303e-05
0.0001162425518443145
-3.984085269619855e-05
0.0001234971135103561
-3.388892690479338e-05
0.0001299209354221126
-2.667951574029331e-05
0.000135432439358133
-1.819338970720656e-05
0.0001407364969661255
-8.756283359124319e-06
0.0001467669887855045
9.886139817125363e-07
0.0001516271935752862
1.372502262960574e-05
0.000157810885477778
2.507893997926853e-05
0.000167247699525838
3.510763795515494e-05
0.0001816888852776271
4.42176420760137e-05
5.046471208594624e-05
0.0002050881873288143
9.312190307761059e-06
-5.761182578411539e-05
1.840120765408426e-05
-5.737923318744869e-05
2.738889596063014e-05
-5.617672835533766e-05
3.61744923563954e-05
-5.396257238118734e-05
4.46290815988136e-05
-5.089261460997847e-05
5.257256245819325e-05
-4.702095369404354e-05
5.977400281085655e-05
-4.244952458214525e-05
6.598827605088054e-05
-3.735845272429988e-05
7.101464925836099e-05
-3.19958764293203e-05
7.47687196059097e-05
-2.664112397359242e-05
7.736158736053905e-05
-2.157041935256693e-05
7.915556872662345e-05
-1.701388852737394e-05
8.074980302157523e-05
-1.311667078498151e-05
8.293232417904224e-05
-9.90784414367799e-06
8.699207864112396e-05
-7.36608436319843e-07
9.284100770538798e-05
-7.516193642338548e-18
0.000104491496467941
-3.354101150921546e-06
0.0001178445591463678
-8.61449379229848e-07
0.0001348860508670211
3.72424173323386e-06
0.0001525356886705782
1.078741582541807e-05
0.0001675974340727111
2.062280961470526e-05
0.0001800620499829784
3.175315076460283e-05
3.48582034593789e-05
0.0001956688436154
3.679636728055968e-06
2.356169379827736e-25
6.972303456875075e-06
-1.014766611336413e-24
9.64225328331964e-06
-1.791486236374212e-21
1.159535768149654e-05
-1.116248887145507e-19
1.271562796334467e-05
-1.40899286698687e-18
1.295843037548214e-05
-5.215886784569438e-17
1.238170103879057e-05
-2.758060781090592e-16
1.111841729780041e-05
-6.868458213010837e-16
9.351145803766497e-06
-9.576934902291258e-17
7.287946106054072e-06
-8.76625095295415e-14
5.144252106680626e-06
-3.902573025682538e-18
3.122362009019505e-06
-4.872451565323897e-28
1.394695810419257e-06
-2.101737284483683e-28
7.36608436303688e-07
-4.481964514516818e-29
4.931115141241278e-24
-1.615532565931135e-17
4.909496962191415e-21
-7.520769147824954e-18
8.810151088402774e-07
-4.064652650097317e-16
4.715355391245843e-06
-9.06482473748829e-18
1.238015537300814e-05
0
2.619736735092659e-05
-2.117582368135751e-22
4.852835877490462e-05
-5.758120771015687e-10
8.130120738153473e-05
3.436835722312153e-09
1.48896157487292e-06
0.0001119404462110812
-3.068092075873958e-26
9.456141910145474e-25
-3.264465506959832e-43
-1.045447532095153e-24
-2.162757174797109e-39
-1.791486236374212e-21
7.319727530618401e-38
-1.116248887145506e-19
5.791696224303138e-38
-1.408992866986871e-18
9.078490660927166e-35
-5.215886784569437e-17
3.173077162087669e-34
-2.758060781090592e-16
-2.860356874067925e-34
-6.868458213010837e-16
1.870135559849586e-34
-9.576934902291256e-17
2.161619286865478e-32
-8.76625095295415e-14
2.380628830356568e-35
-3.902573025682516e-18
-4.202633488479098e-68
-4.872393174751182e-28
-1.249498792510753e-46
-2.10173601856475e-28
9.707328770771856e-49
-4.481964486072642e-29
5.687909659322145e-17
-2.262329050021752e-15
3.693066268577963e-17
-6.055606230705483e-16
1.787910969364726e-33
-3.695346023239521e-16
1.942933566914658e-33
-9.064824737488288e-18
5.144154953856368e-25
-3.774212310789219e-26
4.621236861387391e-24
-2.613986438372935e-29
8.489999582963858e-24
-5.758120771018124e-10
9.752601505908263e-09
-6.315765783594208e-09
-3.980328219882874e-08
1.550986647936743e-06
-8.139390067556043e-26
1.06161091163994e-24
5.928458601090197e-25
-1.2137684904977e-23
1.100384323471375e-21
-1.425991987083726e-20
9.27129417868823e-20
-6.483596635901154e-19
1.525770181134403e-18
-5.074924818614549e-18
6.666686391487441e-17
-2.042324533742894e-16
3.521461845674581e-16
-7.371076705247321e-16
6.089304350076026e-16
-1.021419514617534e-15
7.607196813443076e-17
-6.492428600465063e-17
7.997781568207213e-14
-2.578505437844157e-14
1.845892303418024e-18
8.131067326007018e-14
5.631917713954052e-28
1.499499288407839e-17
4.430953996658344e-28
0
7.761883197457662e-19
-7.752598135156982e-19
8.496239970489313e-15
-6.488757949867662e-17
8.761300601058498e-15
-4.152506856497541e-15
7.359158299550297e-16
1.746228950338724e-16
3.471553764502696e-17
5.811246209228084e-18
5.835161106631769e-25
3.471555514498781e-17
2.968339501407371e-11
-2.474516951522804e-11
1.546318386052729e-07
-2.635829090079266e-10
2.034974294343894e-07
-1.456715611645976e-17
-6.484159360165488e-15
1.313253300131057e-07
-7.482205267861341e-26
3.737663972334926e-25
5.106741861711982e-23
-7.582725710427859e-22
3.844325572065342e-20
-2.369139922255079e-19
1.563581676528598e-18
-4.636795599477424e-18
1.834237425146542e-17
-2.959063323285272e-17
2.993947220556814e-16
-6.125567620537654e-16
5.344986690753184e-16
-5.714997340085244e-16
8.766276049795244e-16
-5.083078854150011e-16
8.491302619881202e-16
-5.486461551070834e-16
1.392250813715539e-12
-5.50549810901953e-16
3.522311973758387e-11
-8.514477326850124e-11
4.445112158113533e-10
-1.4555192156255e-09
4.054745508882607e-10
-1.727199409932628e-09
-1.131627858656453e-14
-1.067056224378592e-10
-9.932530101187997e-15
2.209827906322423e-18
2.376356989943302e-14
2.72978355032676e-15
1.3554609875572e-20
2.396443195475401e-14
8.405781767552034e-13
-8.405722717882988e-13
2.040625573861623e-10
-3.028819176689334e-10
2.635829090126771e-10
-7.171525020651299e-10
-1.219083495051415e-26
-5.250003420512806e-23
1.974272163648098e-16
-3.353953424195048e-16
-7.081828809380203e-15
1.261046007768272e-26
-2.366681125659312e-26
-1.086141550663567e-24
6.597976912217091e-22
-5.76350500325717e-21
2.049931219104925e-19
-7.873393369800824e-19
5.734804476613151e-18
-1.296741059259508e-17
8.268978186424049e-17
-3.109317826884731e-16
3.001319699209497e-16
-6.799494796837799e-16
3.494783235553777e-16
4.456238635270062e-16
3.918596004361423e-16
4.91096973682746e-16
8.812156476464346e-16
-3.329938933025717e-17
1.996303407837721e-15
-6.242295560765506e-16
3.723036450993908e-09
-1.861553448335033e-09
7.508707008329264e-09
-5.275770312544967e-09
4.13107909732902e-09
-5.852202196844516e-09
1.174329407433566e-10
-8.521856886175328e-10
1.463411818922743e-16
1.174313579577249e-10
3.254949344155587e-10
-3.254906195042108e-10
6.884218135447304e-09
-4.457241405064564e-09
1.489899466090953e-08
-6.487832744353584e-09
8.860892947506513e-09
-4.98393501563968e-09
-7.170660142541552e-16
-1.174781683539786e-09
-7.170612634277074e-16
-8.272322594964049e-27
3.241626972397635e-15
-7.678812212295171e-16
-9.978186045145494e-15
5.041606016248252e-14
6.068502635064876e-26
-4.180423935515599e-24
2.105794169404135e-21
-1.306745822139479e-20
4.201003410505366e-19
-1.426168517370025e-18
1.52718290439187e-17
-6.187163011659158e-17
5.280619066838365e-16
-5.84659833119074e-15
7.412869132071791e-16
-7.352243132282664e-16
1.66383005005739e-13
-1.461981355954278e-12
2.413555346764752e-13
-2.376432075621978e-12
7.115052513790169e-16
2.416536070813013e-13
3.359070552471084e-12
-3.357915304600079e-12
6.515793559012937e-09
-8.69152640346561e-10
7.04845225285644e-09
-7.330682280032635e-09
4.816283367560498e-09
-8.768384759107846e-10
3.556960027939526e-09
-3.437593456398406e-09
7.167012405554972e-09
-7.781770194978944e-09
1.373484883207979e-08
-7.544443697092983e-09
2.086017177588281e-08
-1.342883437904396e-08
2.084229750994277e-08
-4.618762450401647e-09
8.34905008233795e-09
-3.020190286002954e-09
-1.098004404788988e-15
-3.819316740264769e-11
-1.096795956113699e-15
-1.213251460154688e-18
4.911349128167817e-15
-2.98843995410305e-18
-1.487165440127293e-17
5.228910811534227e-14
3.452679725102665e-25
-1.150369201915077e-23
3.135299437773517e-21
-1.897938258618194e-20
7.060090073383341e-19
-3.440191746074876e-18
9.310144260425515e-17
-7.3239699745694e-16
3.977411078054973e-15
-2.889052635186157e-14
4.175876390726088e-15
-7.988977888579907e-16
4.277603988132794e-12
-6.67723962870187e-12
7.797710190038545e-12
-8.616717282306626e-12
3.807913072228437e-11
-1.762313990092693e-10
6.230763349566915e-11
-5.944558054263978e-11
4.286320375018799e-10
-2.764045076092093e-11
1.320581560205697e-09
-2.077857826323011e-18
4.437430842949122e-10
1.718752671170335e-27
8.80370972151526e-09
-3.181840532864007e-09
1.589010940220782e-08
-1.045636784972494e-08
1.196866573697596e-08
-8.02788727883106e-09
5.961811173837654e-09
-3.398035753597991e-09
2.192982295774486e-09
-1.211866151067114e-21
3.819316691203357e-11
-7.621215529721789e-21
1.651363085133446e-19
-2.272025343812924e-19
3.634404041754199e-18
-7.899137366292279e-19
5.098729799512981e-18
-2.77563888447603e-18
-1.409660090757328e-17
5.857571887833826e-18
5.311206413442292e-25
-1.613874395946376e-23
3.801665619270065e-21
-3.525455906784723e-20
2.611458718862725e-18
-2.759120333439978e-17
4.511245059148339e-16
-3.528860296315857e-15
7.817010566919749e-15
-4.750896662853615e-14
8.912325120271376e-15
-8.599144950122758e-16
5.913603902867496e-12
-6.154387992945788e-12
1.537608616190971e-11
-2.931924858611583e-11
5.332680908444658e-11
-1.781062482830628e-10
2.764045076092093e-11
-4.634242146892711e-11
-4.171092754249231e-30
-3.818721233893173e-30
-1.177888911127374e-31
-2.077857826327064e-18
3.411868463223718e-11
-3.414987571741922e-11
3.263396558454277e-09
-6.571342382646125e-12
4.646833308214152e-09
-3.601170740941599e-18
3.398035753597974e-09
-1.775953912338365e-24
6.103420792553228e-27
-1.59338320471026e-23
-1.594813502226895e-43
-1.211860047646321e-21
5.241848317951308e-37
-7.621215529721791e-21
2.816768767148921e-19
-1.061257054806093e-19
1.309906136981901e-18
-4.173562918156941e-19
6.102714110000657e-18
-2.716924050616264e-18
-1.896489321611849e-17
3.281760753371923e-17
5.515297069816445e-25
-2.582329436263849e-23
9.801910791468984e-21
-2.619041074067682e-19
9.801465092566506e-18
-1.372589395698311e-16
3.804993824037464e-16
-6.163907783655182e-15
5.987204186266905e-15
-4.704807304280446e-14
7.464886479176374e-15
-8.969774849286297e-16
4.797568969456105e-12
-6.089369217279211e-12
1.43958696631361e-11
-6.345874400056342e-11
2.50391906093827e-11
-2.232477312327708e-10
8.860437946842598e-20
-2.537762858448785e-11
8.860437963027786e-20
1.534323873072106e-36
3.083695079213826e-19
-1.858610916239781e-17
6.571407964084005e-12
-1.135732942077028e-16
3.600406399876822e-18
-1.065942792854578e-17
-4.388072280083748e-37
-7.64341064776858e-22
1.962902243720445e-36
-1.775953912073403e-24
3.027343663185007e-23
-9.086863604131378e-23
1.406765019973137e-21
-1.361397052471584e-21
8.717390664924941e-21
-1.859069751290204e-21
1.232819580729559e-19
-4.163239159783957e-21
5.022261273278349e-19
-1.554665553055139e-19
4.699758227038501e-18
-2.848681930533082e-18
-1.972449747691652e-17
3.19388211771073e-17
1.046681181904501e-24
-1.844176669828261e-22
3.231344275294313e-20
-1.352522088592712e-18
1.254235282559013e-17
-2.634324212245098e-16
4.329529081099759e-16
-6.190649928807585e-15
2.393263935976511e-15
-3.610536235400081e-14
3.470422533451948e-15
-9.12044673961017e-16
1.655891326953934e-12
-1.553810462164518e-11
2.530450447527736e-12
-8.138340774136096e-11
-4.462128741753539e-14
-6.314105478756064e-11
-6.68996289402443e-19
-2.51511460787886e-11
-6.689489033294165e-19
8.050667593486365e-34
-4.117078385596275e-18
-1.473442974955963e-16
-3.48906836195124e-20
-5.230882229324206e-16
2.967301786027814e-21
-1.498577855456918e-17
2.407180410237229e-25
-1.003612945322992e-40
3.788362676674011e-25
-9.777278551445169e-25
4.22022905875808e-23
-3.61117448591905e-23
7.86858709010152e-22
-6.706697606358634e-23
6.758287000753371e-22
-7.500208148666868e-23
3.148782237301821e-21
-2.087636393639478e-21
1.851597191405234e-19
-1.335802218177686e-19
3.55323231674617e-18
-2.185288813955176e-18
-9.729197490603514e-18
1.91570474033112e-17
2.195837391998308e-24
-1.219139502489631e-21
1.492293527968814e-20
-2.500315695490067e-18
8.199370514546356e-19
-2.656746136500237e-16
-1.03150817929004e-16