/*--------------------------------*- C++ -*----------------------------------*\
| =========                 |                                                 |
| \\      /  F ield         | OpenFOAM: The Open Source CFD Toolbox           |
|  \\    /   O peration     | Version:  2206                                  |
|   \\  /    A nd           | Website:  www.openfoam.com                      |
|    \\/     M anipulation  |                                                 |
\*---------------------------------------------------------------------------*/
FoamFile
{
    version     2.0;
    format      ascii;
    arch        "LSB;label=32;scalar=64";
    class       volScalarField;
    location    "0.35";
    object      alpha.water;
}
// * * * * * * * * * * * * * * * * * * * * * * * * * * * * * * * * * * * * * //

dimensions      [0 0 0 0 0 0 0];

internalField   nonuniform List<scalar> 
2268
(
1
1
1
1
1
1
1
1
1
1
1
1
1
1
1
1
1
1
1
1
1
1
0.9999056340765835
1
1
1
1
1
1
1
1
1
1
1
1
1
1
1
1
1
1
1
1
1
1
0.9999055486880436
1
1
1
1
1
1
1
1
1
1
1
1
1
1
1
1
1
1
1
1
1
1
0.999951088266771
1
1
1
1
1
1
1
1
1
1
1
1
1
1
1
1
1
1
1
1
1
1
0.9999999748962481
1
1
1
1
1
1
1
1
1
1
1
1
1
1
1
1
1
1
1
1
1
1
1
1
1
1
1
1
1
1
1
1
1
1
1
1
1
1
1
1
1
1
1
1
1
1
1
1
1
1
1
1
1
1
1
1
1
1
1
1
1
1
1
1
1
1
1
1
1
1
1
1
1
1
1
1
1
1
1
1
1
1
1
1
1
1
1
1
1
1
1
1
-1.174678751013855e-31
-7.349443573252252e-31
-5.269923626388548e-31
1.54833549091091e-32
4.436765989721553e-28
3.018716731703024e-25
1.048989218455635e-23
2.133819361840175e-23
4.319692176381333e-24
1.675463185220019e-25
9.210584892444338e-28
6.095338460111149e-31
3.11023989898976e-35
3.665464109399872e-40
-2.687540915398335e-37
-1.522426873308984e-37
-4.469128741709806e-38
-7.233577408195071e-39
-4.993269527546246e-40
-1.361879817110191e-28
-7.650872602138151e-28
1.265293694423192e-31
1.178215245090129e-26
1.573263644352069e-22
7.309819627257848e-20
1.996412554392378e-18
3.633241946696271e-18
8.171581403805095e-19
4.004343662854481e-20
2.423198193801686e-22
2.507060769608088e-25
1.944337634106803e-29
2.847651809781656e-34
8.587694714527892e-40
-3.345103450111552e-37
-1.616618462550489e-37
-3.653029468120276e-38
-3.378935364932181e-39
-3.962751291999043e-26
-2.088765516987615e-25
5.903626233512079e-26
2.995999539620186e-21
4.986453502583259e-18
5.200656713154153e-16
6.269011504129955e-15
1.045850751488976e-14
4.973505792044423e-15
8.363121955292095e-16
2.628477931144652e-17
4.836822952519859e-20
5.737567506343814e-24
9.699188147577236e-29
1.03413254433681e-33
8.700592765853243e-40
-1.487424045788219e-37
-5.355657632051641e-38
-6.505391722158669e-39
-9.264436184867017e-25
8.243547195019261e-26
2.054037959186744e-21
1.099080650810393e-17
3.393529298412641e-15
9.313045605477048e-14
4.894916937625466e-13
8.324883582419295e-13
7.308455746401228e-13
3.294389693120819e-13
5.053086451152425e-14
9.646706989210136e-16
8.788189724042726e-19
2.255591287987296e-23
2.467397485558876e-28
2.69658477671655e-33
9.399065452052654e-39
-4.246206033409038e-38
-8.39577739182659e-39
-1.623011988929272e-24
9.705646227399844e-23
1.549110346047112e-18
9.675058716367106e-16
8.815974037670238e-14
9.403903268942494e-13
2.692038592838839e-12
5.186824841125257e-12
7.11494481012129e-12
6.497915259521995e-12
3.134686602934662e-12
4.216439206684098e-13
5.518704702881738e-15
2.778448687048777e-18
3.998021272883635e-23
5.056961292430882e-28
4.923967245938541e-33
2.221499904485655e-38
-6.760881489612222e-39
-9.596001714153738e-25
4.06390230372485e-22
2.007266020877606e-17
1.085406239164115e-14
3.165094682056451e-13
1.402500919957449e-12
3.204636473458851e-12
7.172234257448078e-12
1.271188409401292e-11
1.700970644770592e-11
1.669300453430367e-11
9.072387476274013e-12
1.064984593883097e-12
9.478457701254683e-15
2.786538235558227e-18
3.984210417040865e-23
4.345889785873265e-28
3.116371102712917e-33
8.69796603215041e-39
-1.343251553776997e-22
-1.737063345159908e-20
-1.311985859313485e-20
3.248353123280138e-14
3.541448922930467e-13
2.460299967603783e-13
5.182667671647399e-13
1.877358621492328e-12
5.851672088012565e-12
1.473605980081505e-11
2.224952253397619e-11
2.370439958062553e-11
1.352776771045218e-11
1.22755564972586e-12
6.657145839564091e-15
1.100264240738268e-18
1.266199213449077e-23
9.649919513187058e-29
3.646087845219783e-34
-2.747579092987973e-23
0.1443528753738148
0.1038223396721033
9.455615378400426e-15
9.214613030556826e-15
9.454385265748121e-15
9.214151675326553e-15
9.45445432874064e-15
9.214359259814784e-15
9.455540978638158e-15
6.979578430443227e-12
1.856675798195704e-11
2.86306682163477e-11
1.272431836762998e-11
6.727829013341837e-13
1.873629924101415e-15
1.261227217657694e-19
1.009029443199381e-24
9.484549240522236e-30
1
1
1
1
1
1
1
1
1
1
1
1
1
1
1
1
1
1
1
1
1
1
0.9999649118314962
1
1
1
1
1
1
1
1
1
1
1
1
1
1
1
1
1
1
1
1
1
1
0.9999592930604465
1
1
1
1
1
1
1
1
1
1
1
1
1
1
1
1
1
1
1
1
1
1
0.9999996889614047
0.9825171929421266
0.9821516780097637
0.9790041041195282
0.9730113300792624
0.9635940201598271
0.9497612559669308
0.9304693503445375
0.9049299279375153
0.8728852634256888
0.8348421041321792
0.792320596164745
0.7480139131280785
0.7057740237870772
0.6705314788876665
0.6442869063838336
0.6393631009805655
0.6652842064062395
0.7138695307140298
0.7915007095485302
0.8827519068587633
0.9893108001425569
1
1
0.3719797389712888
0.3706782976626968
0.355681916997702
0.3308524530272551
0.2986405257926101
0.2607227802370966
0.2192504356207115
0.1766644557074968
0.1353966791808789
0.09756969709027366
0.06483762064355837
0.03825350363283361
0.01821210954674352
0.004307033385663669
8.71879080410027e-20
3.557980270515578e-20
0.002269254796351882
0.017495707313973
0.04960372825788167
0.1056102313739143
0.1920332115049095
0.3253434282826453
0.4875213229492097
-3.089968854257249e-21
-1.578926484665046e-38
6.692971136654572e-35
-2.596187546548089e-33
3.602759575887195e-32
3.273026841238117e-31
4.28027704844826e-30
-3.338680467682828e-30
-3.094879935059602e-31
1.997400680954164e-28
6.211561460562859e-32
-7.293728718282899e-42
1.170005525285483e-42
-1.45209518756256e-42
8.208580290637941e-13
3.89698741649262e-13
1.358297645856703e-29
1.354093598845365e-29
3.393508383531433e-21
-1.141094719608482e-20
8.840845059898192e-20
-3.041356591071183e-19
0.004516762788578494
-1.08429016031148e-20
1.398928968824663e-20
2.271164907892956e-17
1.373264252661037e-15
1.67345515476658e-14
6.196592104725055e-13
3.234022054171041e-12
6.885371551804496e-12
8.479559993847364e-13
6.861840327174448e-10
4.174088978423497e-14
2.309685706977421e-24
3.210989201937861e-24
-6.52983137945051e-25
5.524513982323193e-11
6.036531471866059e-11
1.770845328384013e-11
7.218398044679156e-13
1.383678535853398e-25
3.284049747473767e-21
0.0006741767308976755
0.000782674167032674
0.0006145053007545704
-1.104530479478515e-20
1.742236892239553e-18
8.053556038368078e-16
2.386921197001617e-14
2.1252115818231e-13
3.298819556298562e-12
7.327419671684577e-12
1.012577023117725e-11
7.569666322292877e-13
1.563329240478695e-11
5.860462168763936e-08
3.653315338837162e-06
3.61548726124653e-06
4.68644930336314e-07
1.041981257153965e-12
1.386288302843989e-10
1.081588193995197e-16
7.649227103789877e-17
7.139931700348754e-07
1.280934798622626e-06
8.707279154341307e-19
7.445547634227269e-13
1.441254381278609e-13
-3.394292009493456e-21
2.331423276990458e-17
4.547348610918698e-15
9.301267543545863e-14
1.125584409932574e-12
5.474484247058502e-12
5.16950871476958e-12
4.980642203534052e-12
4.798476296462425e-12
4.980642203534052e-12
5.778604845156729e-06
5.300951461591776e-05
6.084438683591356e-05
1.552816145694441e-05
1.302758961463236e-12
1.041981257247146e-12
1.319197960850632e-05
6.686360233175462e-05
8.062807884790289e-05
2.583069142012497e-05
1.043150004936922e-22
5.568485423383033e-12
9.325957867740427e-11
1.054271685697788e-20
8.106021192233997e-17
1.036989425204698e-14
2.758790456719802e-13
1.441890019191049e-11
5.501759340957727e-12
2.229645774309386e-09
4.110741385381178e-09
4.980642203535141e-12
5.169508714768647e-12
1.702613498663177e-05
6.883187341434172e-05
6.845930130153879e-05
3.568101673845153e-05
4.039255423742537e-05
5.510843594283225e-05
0.0001450581944150856
0.0001447234142237928
0.0001327585002399069
1.641086718364714e-05
8.707221685629242e-19
9.46975866641812e-12
1.094333169877473e-10
6.605229112280638e-20
1.413723689064867e-16
1.958160161456798e-14
2.019315293157576e-12
1.068840634734053e-10
5.530292213904586e-12
3.667633801337153e-08
6.387916654065214e-08
5.288935390371778e-07
3.297212982429057e-08
2.388726328348939e-06
1.553212071237995e-05
-3.743375302877828e-23
4.720430088756967e-05
0.0001501914168178792
0.0001509905863652629
0.0001291055104227162
7.15022128182405e-05
2.46209365639663e-07
1.191030705352498e-15
1.3845293553443e-14
2.401121434473866e-14
2.431445193512732e-14
1.242534763148766e-19
2.151301471777131e-16
8.131895051421631e-14
1.296411551998855e-11
2.669474516408715e-10
5.554399959080364e-12
5.861461570452468e-08
1.40988991119221e-07
1.677564764559371e-06
8.587093667616566e-07
-1.001203248059166e-25
-3.386895410357681e-32
5.653939968822437e-12
1.643069280640374e-05
8.790652825990616e-05
7.825158046349908e-05
-3.165229886368556e-23
-1.731136917956885e-39
2.727454528602071e-34
1.118056082816378e-15
4.89819681977554e-15
1.94684635672109e-14
9.675161256730833e-14
1.768243037783412e-19
7.573504157867621e-16
5.028750746144038e-13
3.351175923659462e-11
3.371368642963915e-10
5.741453623720708e-12
4.214774369932793e-08
3.716582869158744e-07
1.683963567971921e-06
2.150442966014469e-07
4.289155226244905e-26
2.178314072958586e-14
3.398078654921207e-07
1.670803235362669e-13
5.676697717959143e-32
-3.234944924045476e-38
2.823097823506289e-19
1.044456334900925e-17
5.094469400067607e-17
6.05626341547066e-16
2.123622850725791e-15
1.604631205470282e-14
1.05529281464461e-13
5.371292801086794e-19
4.887499365610966e-15
1.381033812461172e-12
4.427851471694072e-11
3.277807012550623e-10
6.002115240342052e-12
5.825409320914095e-08
5.704274124479433e-07
1.012512640990087e-06
1.48650639948492e-07
-1.240315604448261e-32
1.930207847099576e-13
1.20579919979473e-12
2.615727889121389e-14
6.221035280716074e-18
1.333946280252383e-20
9.495991571623801e-19
1.269533013787924e-17
8.41777149921979e-18
2.012492692357502e-17
8.075751707048946e-16
1.418709317109613e-14
7.738250937213999e-14
4.173022309641832e-18
1.358953973126939e-14
1.943097854970095e-12
4.387302368118949e-11
1.735127129494997e-10
6.194143887720554e-12
1.17978603951648e-07
5.779897973606164e-07
1.77134634238859e-07
1.739009515290282e-07
2.743642867191892e-30
1.469853492223697e-11
5.326532659757836e-12
1.729296727689029e-13
-1.487093660178201e-45
6.126612942028998e-21
1.742965700088008e-19
5.420877005137178e-19
2.935896579890134e-19
1.023505950429694e-17
6.146453781389649e-16
7.68919932453948e-15
2.868626798623874e-14
1.369671149715746e-17
1.875555584602498e-14
1.940056493635569e-12
2.059728221971036e-11
4.130442065434004e-11
6.332519286921918e-12
1.003054535298323e-07
4.886015976514532e-07
1.967445739812944e-07
1.685899166507681e-08
5.677531711358331e-28
1.555655757763656e-10
2.989553058629735e-11
1.933258761006755e-13
1.305103997630719e-36
5.947960122065261e-23
2.033191616459851e-22
2.64651005602742e-21
4.087630659934096e-20
5.868925645420636e-18
2.203010517916351e-16
2.247885683152287e-15
1.019284240162205e-14
2.017920162127281e-17
1.656594785961576e-14
6.06199075742969e-13
4.732177325725956e-12
3.129937703633134e-11
3.292031242278671e-10
6.082746867138915e-09
3.899159089713958e-12
3.403260840824998e-08
1.90121848965927e-10
3.891122620998757e-10
4.284527787699757e-10
4.895629005168178e-11
5.537763683118723e-14
1.404342890819806e-18
1.755282578351655e-24
6.130124731787474e-23
8.182167264142022e-22
1.546374611522996e-20
1.979207892950609e-18
7.188303805896342e-17
7.517849546465097e-16
4.054620640766607e-15
1.720075966653909e-17
3.849014510403619e-15
6.716902694577954e-14
1.764126679573742e-12
3.504151762035157e-11
7.851603825845206e-11
3.845271270465511e-12
4.565890183793247e-12
3.899159089713966e-12
5.363214135496117e-10
9.16081764277161e-10
5.394106958194372e-10
5.12201578341992e-11
9.788484536502065e-31
2.29091701863663e-16
5.556846473155131e-25
8.174272844957384e-24
5.439584172721565e-23
2.562026827990906e-21
4.334831529530195e-19
1.568857135238186e-17
2.025431316422507e-16
1.488879262015143e-15
2.782531424113121e-18
3.07087282897988e-16
7.965375001688787e-15
7.983715138204785e-13
1.662136715587317e-11
4.775724455845271e-11
2.74813648790714e-11
6.404796262885812e-11
4.267223540171899e-10
9.511922644293754e-10
9.4960330590508e-10
5.019023319737944e-10
3.578848402690688e-11
1.148569973177603e-30
2.071312655674513e-15
-1.162620767055657e-26
3.268711885156201e-27
4.93981406422188e-25
2.605988574916103e-22
4.727865649911075e-20
2.107628712327948e-18
5.09705782167305e-17
4.530925339054221e-16
4.584971533782144e-20
1.07779454431102e-17
2.743592435692075e-15
1.392307092936144e-13
2.523835742770551e-12
1.108077852600829e-11
2.797011013662543e-11
1.080816278715502e-10
5.302326650418713e-10
8.097406635942018e-10
7.306612722764022e-10
1.76926802756139e-10
1.287312944777119e-11
3.832063183706746e-14
4.992749946039113e-15
-7.234617514450303e-27
1.25472496585046e-26
5.120645204633189e-25
5.994329804163996e-24
9.514346544245429e-22
2.727782010996288e-19
1.113643688373982e-17
8.32453315999866e-17
1.202328219258815e-22
3.521959784707845e-18
1.262792832059904e-15
1.801406648917083e-14
6.306426866529084e-14
1.721534592299385e-13
4.065933847245574e-12
7.208078942869683e-11
2.05191158167452e-10
2.523945094209899e-10
1.784538238776127e-10
3.00902263718542e-11
2.815071621717478e-12
1.071535770417988e-13
6.375656515843425e-15
1.609410892130803e-44
4.542949502662017e-26
7.947252018962817e-25
3.363390852570067e-24
1.038749212022576e-22
3.292089202990511e-20
1.071697142169216e-18
7.494054510394148e-18
8.297309101114885e-25
3.387225061038849e-20
2.956715019524857e-17
1.449002211896711e-15
1.192887327464628e-14
5.9262039211475e-14
1.1543290746014e-12
1.077049302862292e-11
2.450223622278816e-11
2.729620367510305e-11
1.747449972803301e-11
3.629560775033707e-12
4.736965770607738e-13
9.554051684491241e-14
6.462784014851695e-15
-3.238952789867028e-45
6.004940023269802e-26
4.700770873761426e-25
5.882541649129505e-25
3.568909050140167e-25
1.117704077430529e-23
6.026943792307676e-21
1.662684295913403e-19
1.903943730920789e-26
1.261538804666306e-21
1.265806169975405e-18
6.352946942259082e-17
5.242562597343852e-16
3.655309630915117e-15
9.227762381536106e-14
6.403326414407614e-13
1.159773299740009e-12
1.172298363392067e-12
7.486978113636618e-13
2.824021308212573e-13
7.64130589503837e-14
2.413273586525939e-14
4.768492106292949e-15
-3.685367279110996e-28
-6.35508539847148e-30
8.681302375127385e-29
4.301145192626012e-28
5.697876737637274e-28
3.517740090311836e-28
5.474239608628952e-29
-1.095212710785648e-49
1.427081811871629e-29
9.461240637441677e-25
9.255629457234652e-22
7.366970800538784e-20
3.888516672593364e-18
2.068975152350127e-16
1.218640150649887e-15
1.483596424337385e-15
7.51642781619271e-32
5.543751528532139e-33
1.002515108246412e-15
7.793959735532645e-15
1.05602526300637e-14
4.342372342129296e-15
1.591539346949895e-15
-1.120332722871385e-28
-8.827548170606634e-30
-5.111843413127592e-31
2.480304033553979e-31
9.257324842844715e-31
9.350099445448777e-31
2.906090795770808e-31
2.680654119307427e-32
-3.031870184074874e-30
-3.533389672580432e-29
-1.998637938854168e-28
-7.105504440946739e-28
-1.774306700474065e-27
-3.190190580102787e-27
-3.526569159877451e-27
-2.501566659364065e-37
5.986514579689729e-19
4.00738465315346e-17
2.644961319155967e-16
5.301594815003954e-16
7.518499954194931e-16
6.991044969456726e-16
1.293892749656292e-16
-2.787838626931186e-29
-1.950809236316016e-30
-1.198072787175688e-31
-8.166927562258033e-32
-4.380708675206841e-32
-1.68943466993533e-32
-4.173503164725734e-33
-5.789209420675592e-34
-2.339678671040567e-31
-3.130914361583341e-30
-2.031492365040414e-29
-8.329451194386044e-29
-2.430074421738493e-28
-5.376258379724386e-28
-9.375912743158322e-28
-1.32046063025509e-27
-1.523366784892142e-27
-1.449592731097779e-27
-1.138982729362199e-27
-7.304922486895602e-28
-3.672999952137988e-28
-1.383011997921951e-28
-3.571746501986689e-29
-5.397785935026649e-30
-3.376654240394708e-31
-1.03197780378313e-32
-7.906078314282943e-33
-5.13262523654554e-33
-2.648295902984944e-33
-1.030186066628976e-33
-2.648248466921768e-34
-9.667373567499283e-33
-1.491557494157738e-31
-1.112503168978446e-30
-5.253116572358151e-30
-1.767048693090621e-29
-4.505937149673721e-29
-9.030686826890717e-29
-1.452026202041948e-28
-1.890537920838731e-28
-1.992920344411944e-28
-1.685356453852744e-28
-1.12175619009503e-28
-5.69386430920835e-29
-2.096826283396406e-29
-5.162471610025019e-30
-7.312547205247753e-31
-4.210425047503351e-32
-7.32066233578491e-34
-6.090586259436746e-34
-4.499625711137322e-34
-2.726612038696148e-34
-1.304900478375577e-34
-4.593548070717321e-35
-2.334167915003752e-34
-4.021322543919022e-33
-3.335947209863706e-32
-1.749722692986589e-31
-6.521224094342318e-31
-1.835160868169225e-30
-4.037240270353789e-30
-7.078756259794971e-30
-9.976114340660621e-30
-1.129426528757697e-29
-1.017848235841171e-29
-7.167900870776483e-30
-3.826094198894103e-30
-1.475212996151816e-30
-3.795716931138759e-31
-5.63231162462865e-32
-3.425811585342165e-33
-4.345446804964955e-35
-3.888543442380504e-35
-3.240028730568878e-35
-2.2572338357687e-35
-1.266691951045411e-35
-5.42212013695691e-36
-1.39618955965563e-36
-2.661965338142322e-35
-2.431929599029736e-34
-1.401832313909796e-33
-5.726587427186116e-33
-1.760973682206975e-32
-4.220076412027499e-32
-8.039075550896805e-32
-1.229167771044471e-31
-1.510884575140844e-31
-1.484396281169964e-31
-1.149862811238815e-31
-6.861010420110397e-32
-3.037461481744223e-32
-9.37772482314414e-33
-1.800075479706287e-33
-1.6335597976811e-34
-2.132432915762788e-36
-2.042515116632857e-36
-1.906694599387671e-36
-1.50933008686447e-36
-9.740052182796712e-37
-4.867689564996935e-37
-2.459546197982369e-40
-6.842832877649294e-39
-9.019467879337501e-38
-7.456980110428689e-37
-4.337858976242915e-36
-1.883756309817373e-35
-6.316337611520319e-35
-1.667046320531836e-34
-3.495965737162682e-34
-5.835240945200622e-34
-7.710134769106089e-34
-7.959533644722816e-34
-6.275748062212911e-34
-3.642332285050602e-34
-1.463284687292929e-34
-3.630252444532705e-35
-4.246688828426482e-36
-8.528162853639273e-38
-8.793586458074739e-38
-9.142282858224211e-38
-8.146333649640239e-38
-5.971193439329908e-38
-3.431362357243974e-38
-1.530334401264319e-42
-4.491609512742943e-41
-6.213910808110436e-40
-5.373458103349595e-39
-3.258086196559558e-38
-1.469661886617142e-37
-5.101683732716514e-37
-1.389555605651007e-36
-2.998598842330156e-36
-5.137437210910316e-36
-6.953910630410187e-36
-7.344646988548445e-36
-5.922070480274414e-36
-3.517317728682271e-36
-1.44959772693826e-36
-3.71462419559348e-37
-4.661883051640556e-38
-2.760885648174908e-39
-3.120947299034047e-39
-3.598581457316572e-39
-3.582097968902445e-39
-2.952700915838464e-39
-1.928759908052237e-39
-2.738189531693314e-45
-8.29603124985051e-44
-1.180460270006085e-42
-1.047661273866049e-41
-6.506529626321308e-41
-3.000936671510903e-40
-1.063536370015381e-39
-2.954000720853877e-39
-6.496008640694165e-39
-1.1340760036781e-38
-1.565500092259321e-38
-1.689861923197208e-38
-1.398437673433081e-38
-8.593728527506001e-39
-3.728478872591869e-39
-1.058469036313616e-39
-1.957817360373403e-40
-7.181752551783513e-41
-9.116756585491373e-41
-1.159614341712412e-40
-1.278733643772321e-40
-1.174838323369957e-40
-8.662954092749406e-41
-1.175840226972758e-49
-4.310841973250271e-48
-7.438775450017349e-47
-8.040194829395087e-46
-6.106859419210917e-45
-3.460226810976408e-44
-1.514342631148292e-43
-5.226892341604324e-43
-1.439915634767097e-42
-3.182847122451209e-42
-5.644317102595439e-42
-7.988229455209936e-42
-8.930683125348917e-42
-7.773410073848197e-42
-5.204686662559315e-42
-2.772747663702491e-42
-1.544183695828409e-42
-1.526417531833589e-42
-2.198704115555686e-42
-3.074509949356365e-42
-3.740531064218356e-42
-3.824367608414496e-42
-3.197705821071863e-42
-5.11900189152767e-52
-1.953612323496053e-50
-3.492387263160735e-49
-3.898357969587421e-48
-3.05027006205315e-47
-1.776964474217034e-46
-7.9841983983814e-46
-2.826905297606339e-45
-7.987089734406548e-45
-1.812013230219662e-44
-3.304572744683587e-44
-4.828983116880221e-44
-5.617366705137085e-44
-5.168467827400746e-44
-3.799862898922522e-44
-2.467073297954191e-44
-2.007960318909067e-44
-2.697636628722467e-44
-4.404762302939304e-44
-6.768491922162303e-44
-9.093662699184673e-44
-1.040267281691737e-43
-1.000643821050268e-43
-1.206843798101968e-54
-4.725969684926756e-53
-8.656728746200434e-52
-9.898478287376545e-51
-7.934528340725225e-50
-4.738267539362184e-49
-2.18520205211071e-48
-7.959217911932254e-48
-2.321806297756516e-47
-5.469505903278019e-47
-1.04497926150015e-46
-1.622565793099107e-46
-2.053731068889352e-46
-2.147309226214197e-46
-1.957747178320299e-46
-1.843605305576994e-46
-2.338612259251625e-46
-4.004873394207964e-46
-7.31386917645907e-46
-1.236683356939902e-45
-1.844636961401304e-45
-2.392362150312457e-45
-2.713884125245745e-45
-1.368137928318716e-57
-5.550611804205974e-56
-1.055424050126766e-54
-1.257291942226874e-53
-1.054945860250979e-52
-6.634852417116835e-52
-3.248333122668663e-51
-1.269051321427919e-50
-4.024286799598368e-50
-1.04858706016122e-49
-2.266432271605509e-49
-4.100163238109317e-49
-6.288995911662333e-49
-8.416257981333106e-49
-1.05767253806065e-48
-1.449866586277919e-48
-2.479680135786389e-48
-4.98258991427128e-48
-1.0104526315714e-47
-1.892146205924976e-47
-3.175098036217571e-47
-4.775138685112123e-47
-6.57526196594075e-47
-8.087544248425547e-61
-3.652436258739636e-59
-7.804640893000696e-58
-1.056019336480308e-56
-1.017172100843257e-55
-7.420590428398374e-55
-4.25608514648799e-54
-1.965780829346635e-53
-7.429325217667169e-53
-2.322658425862317e-52
-6.055277172580164e-52
-1.326958160116144e-51
-2.477904939420372e-51
-4.07655538485584e-51
-6.404337064213041e-51
-1.101916996761562e-50
-2.264934026044113e-50
-5.178143697284759e-50
-1.170980768145993e-49
-2.462699507116549e-49
-4.749883324972193e-49
-8.496384223959366e-49
-1.442070532132168e-48
-1.153743891338966e-63
-5.852143818687839e-62
-1.394584298240335e-60
-2.091498057101227e-59
-2.219878885694489e-58
-1.774927711835939e-57
-1.110443259158223e-56
-5.572559289824345e-56
-2.281550084139562e-55
-7.714588845881563e-55
-2.175577866999898e-54
-5.173035248946255e-54
-1.057180802839574e-53
-1.940399348773192e-53
-3.516669315706493e-53
-7.178684700255891e-53
-1.729455331371844e-52
-4.504574698660301e-52
-1.151943760721295e-51
-2.775875403991497e-51
-6.282438124420688e-51
-1.3510354624213e-50
-2.79117860776633e-50
-2.091579624880164e-66
-1.107346965176422e-64
-2.755756346032533e-63
-4.321191141889245e-62
-4.801679835781837e-61
-4.025232056023353e-60
-2.644651309654472e-59
-1.396472028120927e-58
-6.030486869894039e-58
-2.157461913628091e-57
-6.46654884234184e-57
-1.64628277798264e-56
-3.651638015692284e-56
-7.46796717665506e-56
-1.570395260419413e-55
-3.824111759356866e-55
-1.084342598529935e-54
-3.252250086472891e-54
-9.559868622615508e-54
-2.681887098026834e-53
-7.172418618013627e-53
-1.835529679687494e-52
-4.489377152057049e-52
-2.988127259014179e-69
-1.654467057327136e-67
-4.305588015547278e-66
-7.06467097131777e-65
-8.220016820542029e-64
-7.220824773751263e-63
-4.975898217322762e-62
-2.75896676407383e-61
-1.253052800640012e-60
-4.725870896977266e-60
-1.49899581149246e-59
-4.067686806152788e-59
-9.763534097991216e-59
-2.228822036403165e-58
-5.478999763345177e-58
-1.601834650128896e-57
-5.379146286221425e-57
-1.877895163491357e-56
-6.412610634077032e-56
-2.099804749580064e-55
-6.563437436911122e-55
-1.951653495403933e-54
-5.487770282556131e-54
-2.846230286330287e-72
-1.65788491696735e-70
-4.531814766464963e-69
-7.808449495695753e-68
-9.538977454638256e-67
-8.796593484930422e-66
-6.363451102562623e-65
-3.70468897336033e-64
-1.767728639432686e-63
-7.013697524919254e-63
-2.347384111707247e-62
-6.769856387216951e-62
-1.75827823587363e-61
-4.518190699915687e-61
-1.320791873702985e-60
-4.698244294251789e-60
-1.882923818378178e-59
-7.692541949668368e-59
-3.049008240977987e-58
-1.152839672154738e-57
-4.129942746652826e-57
-1.394462108826649e-56
-4.415516760668017e-56
-6.58550945340055e-76
-4.254142832671067e-74
-1.284223743842761e-72
-2.437860754793078e-71
-3.274834063359125e-70
-3.315367277123206e-69
-2.628905689511258e-68
-1.675149444055611e-67
-8.735977223164047e-67
-3.78347748653314e-66
-1.381512772030024e-65
-4.356752635707101e-65
-1.251465017896042e-64
-3.673828572125889e-64
-1.287452063372532e-63
-5.596885311551971e-63
-2.700355451044947e-62
-1.305395713742582e-61
-6.050425737203739e-61
-2.648597432061826e-60
-1.088228172774464e-59
-4.180797908246168e-59
-1.498062951421836e-58
0.9994951470962065
0.9994905234577078
0.9996702444634886
0.9997784494418319
0.9999594646783572
0.9996889038579874
0.9996613404007396
0.9997646353990924
1
0.9999955670282956
0.9999752390616858
0.9999816099669319
1
1
1
1
0.5763981559214387
0.6068307794796562
0.6992578506453505
0.8642900720249362
0.01235700043075265
0.0198768570686109
0.0302253735254438
0.04787150947974528
0.0001381312655619
3.696436123782466e-21
-2.740585299975936e-21
7.773609745215951e-31
4.120664868254558e-23
3.733250240838216e-11
6.346610875939853e-11
1.637333281654235e-11
2.515386041344155e-10
4.658246388762294e-10
4.76754986722284e-10
2.871565285410722e-10
2.619346992458691e-10
4.40939212341404e-10
5.314799075873135e-10
5.282574037119441e-10
2.459162256559531e-14
2.484579489020214e-14
2.507983342684034e-14
2.530123100627704e-14
2.106574372768925e-13
3.439090766766014e-13
5.523378373122444e-13
8.15646407818097e-13
2.356980043942288e-13
3.802131061894433e-13
5.706737228910403e-13
8.735027410681226e-13
1.532881070681524e-13
2.200141986848897e-13
2.845860290980169e-13
4.297492477344785e-13
5.297804812015846e-14
7.788234486039357e-14
1.115457639262753e-13
1.687288597474554e-13
2.211235782988457e-14
3.751224742512085e-14
5.890216954811079e-14
8.686694929276905e-14
1.039926549968261e-14
1.861980199668372e-14
2.843410678475905e-14
4.239143789016451e-14
4.130737514992388e-15
6.919533241115608e-15
1.055858669663255e-14
1.921587696715467e-14
1.119795202485689e-15
1.782966781896037e-15
3.065724440441523e-15
7.55047017656235e-15
1.894599701515595e-16
3.034391538348179e-16
4.859244887347023e-16
1.211688050933856e-15
1.816107440990277e-17
2.588067833534872e-17
3.001211696730929e-17
4.050136423349101e-17
4.432416899172656e-19
3.440844835954518e-19
5.375794858183048e-20
-2.226675080491525e-34
-3.99385450569722e-36
-5.818417448966263e-36
-1.82190935489978e-36
-1.205380642654248e-35
-1.400243007850589e-35
-8.124296798079295e-36
-1.288333768072035e-36
-1.509937320973896e-37
-3.827286409735005e-35
-9.537415106503719e-36
-1.442559276149487e-36
3.471642183601868e-44
-2.339086393201226e-35
-7.028092533442121e-36
-1.476375766423217e-36
-3.940736976536182e-49
-9.335059854500273e-36
-4.092335853999311e-36
-1.4354862512615e-36
-3.124858197937978e-37
-1.591265327846273e-36
-9.114439746246253e-37
-5.166947828958839e-37
-2.903548935397459e-37
-1.722628116193415e-37
-1.039309261072998e-37
-6.185923986175005e-38
-3.664511162307137e-38
-1.432794909673004e-38
-9.085980851919191e-39
-5.657916001586479e-39
-3.49165577014455e-39
-9.385310480464791e-40
-6.280385128491175e-40
-4.120995966395591e-40
-2.677392194857523e-40
-4.908685078151149e-41
-3.506566737186781e-41
-2.465331252310149e-41
-1.723281781857008e-41
-2.145550854706624e-42
-1.671036943310653e-42
-1.291917309279765e-42
-1.000313848939669e-42
-8.172623616454246e-44
-7.115697595134824e-44
-6.203555933164635e-44
-5.436624286128811e-44
-2.784454169339013e-45
-2.766821796490276e-45
-2.756497178129567e-45
-2.746005982912205e-45
-8.603747559175428e-47
-9.7918997250106e-47
-1.10849264182301e-46
-1.240979005234645e-46
-2.368187302558477e-48
-3.047585043034326e-48
-3.858766602832747e-48
-4.783918415259789e-48
-5.542075846286247e-50
-7.927092778721411e-50
-1.106527185973701e-49
-1.503177378465071e-49
-1.041259608883038e-51
-1.63466047259983e-51
-2.492124768749774e-51
-3.685697511110489e-51
-1.448512263902756e-53
-2.473738336138236e-53
-4.092953360006245e-53
-6.56180042810979e-53
-1.305605204247705e-55
-2.41392608601618e-55
-4.320589776084995e-55
-7.493739230629621e-55
-4.999158800445358e-58
-1.010039567789378e-57
-1.974515372703133e-57
-3.740980600557318e-57
0.9631740251962988
0.9989549738570114
0.8959139855734995
0.386321020063108
0.2439939657337035
0.317879923267557
0.343750325244197
0.2246430369989001
0.05402305757360469
0.001523442586417493
5.969819362403433e-13
6.105692832995851e-13
2.677504094311997e-11
3.302455533254663e-11
1.382487485950845e-11
8.18470259828334e-13
2.944629365273213e-15
2.754264072127105e-19
1.817650408561401e-24
1
1
1
1
1
1
1
0.9936719129023907
0.8134575425524636
0.4779695427543815
0.2048903109869961
0.036835371711796
2.788259738634478e-11
2.903514958635883e-11
4.872549555787788e-11
2.283856476878547e-11
1.626662676189854e-12
7.317180547301074e-15
6.924447943589346e-19
0.9999944673978711
1
1
1
1
1
1
1
1
1
1
0.7782933256872794
0.2435787699302151
0.005544718630840542
4.95227796943883e-11
5.686176600342125e-11
2.476110751731893e-11
1.340449296186585e-12
2.907319344450902e-15
1
1
1
1
1
1
1
1
1
1
1
1
0.9975601359838913
0.5381570923578501
0.01959816819058428
2.838099391228753e-11
2.720453166829115e-11
1.082634937875206e-11
3.397312308287564e-13
0.8580466677629209
0.7796342873309161
0.770186208911629
0.7666993760041992
0.730332121122876
0.6770310883442932
0.692773366721263
0.8050899611608744
0.9421853430997179
0.9968127345348468
1
1
1
1
0.5462002823394233
0.01170947427258619
9.106241649002772e-12
1.051412590956475e-11
2.041186116155203e-12
0.04607765779155831
0.03001972267650205
0.01365320152823725
0.0008272381318912056
1.082539784980596e-20
4.022450317296491e-29
1.307812941609575e-29
0.02795123515082032
0.1957198098003768
0.4881881586132935
0.7982396168477707
0.9808908724329314
1
1
0.9833905525088378