/*--------------------------------*- C++ -*----------------------------------*\
| =========                 |                                                 |
| \\      /  F ield         | OpenFOAM: The Open Source CFD Toolbox           |
|  \\    /   O peration     | Version:  2206                                  |
|   \\  /    A nd           | Website:  www.openfoam.com                      |
|    \\/     M anipulation  |                                                 |
\*---------------------------------------------------------------------------*/
FoamFile
{
    version     2.0;
    format      ascii;
    arch        "LSB;label=32;scalar=64";
    class       volScalarField;
    location    "0.35";
    object      p;
}
// * * * * * * * * * * * * * * * * * * * * * * * * * * * * * * * * * * * * * //

dimensions      [1 -1 -2 0 0 0 0];

internalField   nonuniform List<scalar> 
2268
(
96253.53810146498
96255.19980882405
96253.61319346777
96251.35662332598
96248.35279051086
96244.64529630665
96240.44378672521
96236.08870364088
96231.99935634185
96228.6688014211
96226.67864271971
96226.70747380666
96229.5296525259
96236.00605163381
96247.06393085051
96263.63887004332
96286.58134189092
96316.71643995555
96354.32414606662
96398.73770033044
96447.74404602936
96494.19783574114
96542.10203519367
96193.47557279756
96195.1000484644
96193.53638343631
96191.28450712965
96188.27259295266
96184.54902225042
96180.3340255154
96175.96685549861
96171.86376113744
96168.51672134042
96166.50635428907
96166.50880079836
96169.29335397246
96175.71083241222
96186.67037064506
96203.12929396174
96225.93591448394
96255.85788712368
96293.26700131934
96337.68133814041
96387.22679143264
96434.85053640848
96485.14187765692
96132.94093161539
96134.51376518064
96132.97322388066
96130.72226299134
96127.68972745814
96123.93164556284
96119.67878492743
96115.26820810667
96111.11169658379
96107.69886946252
96105.60816172149
96105.51196686867
96108.17330180104
96114.43339282893
96125.1919753043
96141.40508478454
96163.67844837597
96193.05004472958
96229.7766692099
96273.40330292306
96322.29552229759
96369.44397130329
96420.83910019201
96071.68436148867
96073.18474191776
96071.64049901167
96069.36519344235
96066.28175756217
96062.45532013067
96058.12630437706
96053.62929842183
96049.37116659837
96045.83824011033
96043.60561213926
96043.34033124056
96045.79622226978
96051.79726583807
96062.20000401128
96077.76593757349
96099.61711693984
96128.14823581959
96163.72035040316
96205.84246137111
96253.06052511447
96298.50888550025
96350.41251366635
96009.78605529369
96011.2165507568
96009.64974800458
96007.33167769849
96004.17417404367
96000.25137261453
95995.81156455525
95991.18667235556
95986.77858057263
95983.0696636721
95980.63081521609
95980.12282177647
95982.28916218995
95987.93616612085
95997.89409422976
96012.96045477511
96033.91470076532
96061.27530631259
96095.19903622291
96134.99975118169
96179.21740946581
96221.08934311225
96271.70823647884
95947.2429058492
95948.62597710428
95947.0283682966
95944.65832091717
95941.41328959305
95937.37323088654
95932.79146474761
95927.99682099237
95923.38588770718
95919.4360968534
95916.71297190414
95915.86990864835
95917.63880242256
95922.80648350598
95932.16925377837
95946.4532446653
95966.37033771334
95992.26748431356
96024.07186049894
96060.67154887209
96100.12741424107
96135.18228043798
96179.20026335931
95883.71198080102
95885.08385360964
95883.45856024994
95881.03884726268
95877.71107081097
95873.5549655175
95868.82521704024
95863.84725015122
95859.01201815551
95854.79088189184
95851.74255660478
95850.5115315134
95851.81664954025
95856.42454355593
95865.10061029205
95878.52971738888
95897.14312012961
95921.25000501297
95950.43129697425
95982.84013619022
96015.24647400749
96038.23132454148
96062.40681580594
95818.51672991787
95819.83120264369
95818.13783178352
95815.61657094219
95812.16576042167
95807.8611689588
95802.95457449158
95797.76914063809
95792.69198357199
95788.18928026866
95784.81282791696
95783.19644510424
95784.04137893995
95788.08598598378
95796.0519429292
95808.54924766211
95825.85430534017
95848.01943121603
95874.25861668348
95901.66148458052
95924.51969636991
95928.24020401986
95904.27598834544
95524.23652246511
95524.49084830406
95524.95206169943
95525.59108364697
95526.4358014123
95527.50652132499
95528.81916662272
95530.34937818616
95532.06333085061
95533.90363398421
95535.78898946953
95537.63544303118
95539.37915204545
95540.96707235584
95542.35216881927
95543.49802397695
95544.37978795441
95544.98212643407
95545.29851726773
95524.16406071771
95524.42462652318
95524.89006719003
95525.52814805391
95526.36813344076
95527.43547203111
95528.75033184084
95530.28535420561
95532.00765458333
95533.86055051837
95535.75971260018
95537.61771737669
95539.37222949552
95540.97024533736
95542.36254586594
95543.51205011542
95544.39475127126
95544.99697741355
95545.31431005527
95524.07070037995
95524.34918772172
95524.82849240799
95525.45962083698
95526.28881959921
95527.35002652454
95528.66876501792
95530.21401087762
95531.95319498857
95533.83221079977
95535.75954815465
95537.64011897655
95539.41572259755
95541.03378643648
95542.44006856497
95543.59585595186
95544.4787004736
95545.07873130434
95545.39593905471
95523.95117736208
95524.26473409879
95524.75503138742
95525.38709833271
95526.19662266904
95527.24623191102
95528.57231429299
95530.13330725591
95531.89818986316
95533.81813005467
95535.78877037166
95537.7020225391
95539.50882626248
95541.15795794631
95542.58571472182
95543.75027989414
95544.63169227724
95545.22661377098
95545.54221412755
95523.79504443982
95524.16187501559
95524.68633856351
95525.31614410506
95526.09030563328
95527.12271628309
95528.45916102386
95530.04154104242
95531.83954132471
95533.81862010139
95535.84918825759
95537.80304993817
95539.65028794552
95541.34307217349
95542.80051415801
95543.97599121934
95544.85317802192
95545.43888272883
95545.75081452064
95523.57833040088
95524.07072558136
95524.60927006727
95525.22141408514
95525.97043858777
95526.98166497206
95528.32946557981
95529.93754504497
95531.77224615416
95533.83491692804
95535.94494261993
95537.94377420458
95539.83849408048
95541.58970436058
95543.08582894588
95544.27377046937
95545.14201212348
95545.71264710645
95546.01810280367
95523.32500988993
95523.89042557316
95524.53383171864
95525.24481735005
95525.83405572797
95526.80333396253
95528.18888937068
95529.82331753329
95531.68908646955
95533.87079363271
95536.08128506692
95538.12185444568
95540.06953468316
95541.89900634455
95543.44374196425
95544.64477202235
95545.49637090042
95546.04363689751
95546.33879225538
95522.95487151209
95519.61672626954
95521.41631574401
95525.02486911447
95525.7402442634
95526.65743252561
95528.05153009731
95529.70337292356
95531.57841232284
95533.93389557552
95536.27754004745
95538.31591680938
95540.32396529174
95542.26956319828
95543.87546808396
95545.09022223354
95545.91319938219
95546.425494989
95546.70523175797
95715.41480056696
95716.55874421279
95714.77254533091
95712.03347270272
95708.33041961331
95703.73485999447
95698.48340816307
95692.89370942955
95687.34716203224
95682.3014165293
95678.29614963675
95675.94540328116
95675.91531547038
95678.88315925613
95685.47358562356
95696.19291680492
95711.27088397153
95730.14313430374
95751.26098179774
95769.29460212946
95770.6984892005
95720.08641288015
95420.10308742807
95573.87090656937
95574.8761521211
95572.9525680088
95569.92221834851
95565.78954868119
95560.63000750668
95554.66640186643
95548.19865724586
95541.59487406236
95535.30461419212
95529.86611409251
95525.89710219816
95524.05919392024
95524.96679777345
95528.97233828028
95536.0012245682
95545.8234903946
95560.05154457335
95576.51985899083
95589.68511139399
95589.57778298213
95565.45567092115
95509.01071825232
95427.25319004639
95428.1014688127
95425.90240347784
95422.39255926109
95417.57731846999
95411.52517699644
95404.43660911755
95396.58174258671
95388.30396267562
95380.03954967632
95372.34052952503
95365.89110992015
95361.50909000587
95360.1361944789
95362.79479770093
95370.55307520079
95382.88141927159
95395.1614874994
95408.91757809889
95423.44292461454
95433.31833617506
95429.66289588652
95407.9218564981
95278.53712287436
95279.11744709378
95276.79155621953
95273.13567689415
95268.21921477201
95262.14509116032
95255.12209023703
95247.40089414723
95239.25962792584
95230.99476192538
95222.92658534707
95215.40287708257
95208.80747445277
95203.64473652314
95200.47637543222
95199.74008468697
95201.86071647015
95208.41937909347
95222.34431491865
95240.96747588024
95260.10377123802
95273.2034821117
95276.74874273431
95183.20115447398
95183.14777675574
95182.19665797678
95180.62536397869
95178.58968574635
95176.1933981074
95173.56875754808
95170.86918006826
95168.2470174957
95165.83511949035
95163.73805352907
95162.01982155278
95160.71397950711
95159.91218279628
95159.68905717916
95159.5463312669
95159.59689645545
95160.28060304694
95162.19938809607
95165.63662502149
95170.89560826683
95178.96936784995
95188.83047237861
95159.72852963298
95159.73461886625
95159.72598199484
95159.71457235582
95159.69851770959
95159.67726236311
95159.65002882262
95159.61666356589
95159.57789005828
95159.53502036993
95159.49043632824
95159.44740476235
95159.41233520342
95159.39563447313
95159.35257855189
95159.28867031784
95159.20376016176
95159.07372568027
95158.95306296862
95158.851060559
95158.78307675135
95158.71737521114
95158.68530291844
95159.55495982265
95159.5568484636
95159.5491244025
95159.53745461577
95159.52051276572
95159.49769935224
95159.46852664078
95159.43267914261
95159.39074409222
95159.34422253352
95159.29532056426
95159.24613201902
95159.19858660926
95159.15374565421
95159.10033532385
95159.03177886967
95158.94057541623
95158.8288747661
95158.71733844042
95158.60230279388
95158.46427493302
95158.22043389894
95157.80607248819
95159.38845102816
95159.38819281667
95159.38043697391
95159.36795770001
95159.34973235466
95159.3249236452
95159.29294491169
95159.25350411294
95159.2071399742
95159.15550090793
95159.10079609197
95159.0442255868
95158.98533921938
95158.92586555218
95158.86459424454
95158.79550913979
95158.71092809419
95158.60542512297
95158.47755212217
95158.32252191933
95158.12633630564
95157.90188562202
95157.62755014855
95159.22690097331
95159.22491602742
95159.21636663709
95159.20237699164
95159.18209001604
95159.1544752296
95159.11879842293
95159.07478062229
95159.02310142732
95158.96563793492
95158.9043638469
95158.83957517271
95158.77167986846
95158.70573374556
95158.64188108973
95158.57232908119
95158.48998431326
95158.38592078847
95158.25837321788
95158.10483239505
95157.92278785787
95157.70140482268
95157.42950026382
95159.06652008141
95159.06310555608
95159.05326145838
95159.03734512275
95159.01453238094
95158.98367345885
95158.94397189561
95158.89520468059
95158.83816635984
95158.77457455308
95158.70571305959
95158.63158226051
95158.5583947667
95158.49262643603
95158.42790700072
95158.35369334654
95158.26554648881
95158.15839604587
95158.03181088119
95157.88343785677
95157.70458570596
95157.48380578599
95157.21738521857
95158.90631861662
95158.90165959715
95158.8903891886
95158.87247111957
95158.84710252273
95158.81308896153
95158.76968705961
95158.71680665888
95158.65531451149
95158.58670116932
95158.51177548984
95158.43227599349
95158.35660437202
95158.28653489187
95158.21469845648
95158.13341376357
95158.04056095125
95157.9372287438
95157.81590391279
95157.67040301494
95157.48851498064
95157.26305702925
95156.99258636293
95158.74650385744
95158.74081659075
95158.72824210068
95158.70850754817
95158.68088664958
95158.64422546611
95158.59793144588
95158.54209845845
95158.47769377973
95158.40631433403
95158.32926883355
95158.24905313634
95158.17098969096
95158.09319453199
95158.01194274725
95157.92813520013
95157.83778018429
95157.73412111934
95157.60899023057
95157.45386250774
95157.2619846314
95157.02625236419
95156.7443241914
95158.5878302179
95158.58134912883
95158.56773834131
95158.54653968049
95158.51716352478
95158.47856584071
95158.43037879937
95158.37289543064
95158.30720671218
95158.23502688232
95158.15800141021
95158.07857950224
95157.99893609823
95157.91714963529
95157.83125655871
95157.74336862305
95157.64790089388
95157.5344169098
95157.396906643
95157.22901612797
95157.02437386295
95156.77546071423
95156.47823319791
95158.43112912188
95158.42406639346
95158.40973392075
95158.38746253296
95158.35686933363
95158.31703133107
95158.26785865969
95158.20982656429
95158.14418110735
95158.07226020421
95157.9960670554
95157.91710255665
95157.83574445009
95157.75078906708
95157.66090741297
95157.56480042214
95157.45700811087
95157.33055295482
95157.17952044692
95156.99805672595
95156.77986222993
95156.51659250284
95156.20224080853
95158.27702945258
95158.26953685183
95158.25476822753
95158.23175635069
95158.20038513576
95158.15989480172
95158.1103916448
95158.05244179872
95157.98721260231
95157.91609570256
95157.84017448623
95157.76033095249
95157.67627287762
95157.58670325503
95157.49027409058
95157.3838578834
95157.26382758516
95157.12466182855
95156.96082223576
95156.7663356617
95156.53477306373
95156.25692418378
95155.92535609844
95158.12586691932
95158.11806346841
95158.10298203964
95158.07949511403
95158.04766101255
95158.00690957782
95157.95745095388
95157.89983009156
95157.83501211843
95157.76395235505
95157.6873786301
95157.60553419824
95157.51784742516
95157.42291262835
95157.31863798659
95157.2027305573
95157.07191937705
95156.92140887622
95156.74586605139
95156.5393237855
95156.29527358105
95156.00366093553
95155.65664221827
95157.97771558627
95157.9697145104
95157.95436551068
95157.93057964908
95157.89848319579
95157.85765253341
95157.80829464702
95157.75085758185
95157.68605074285
95157.61449476509
95157.53655869002
95157.4521381524
95157.36050458867
95157.26026877633
95157.14937016831
95157.02511327178
95156.88479587108
95156.72461397096
95156.53877697763
95156.32173224827
95156.06691532118
95155.76354551037
95155.4044850741
95157.8325602316
95157.82441609757
95157.80885944475
95157.78486139851
95157.75259915793
95157.71173291063
95157.66242643369
95157.60499784489
95157.5399088929
95157.46753528269
95157.38799169479
95157.30098291373
95157.20570404854
95157.10078268779
95156.9842359326
95156.85341595473
95156.70528935021
95156.53712654517
95156.34266192533
95156.11721698717
95155.85397368354
95155.54180319703
95155.175116128
95157.69033537594
95157.68207889398
95157.66636626127
95157.64221889443
95157.60985054795
95157.56896625878
95157.51967193763
95157.46215980216
95157.39670322524
95157.32348230467
95157.24243923594
95157.15315790208
95157.05477971102
95156.94594925128
95156.82478297828
95156.68885238505
95156.53521208317
95156.36027109472
95156.15960383366
95155.92812307502
95155.65913281843
95155.34120425835
95154.97172376589
95157.55096851042
95157.54263062154
95157.52681329312
95157.50258187686
95157.47017149214
95157.4293131499
95157.3800569882
95157.32248981616
95157.25673865706
95157.18283426456
95157.10059323379
95157.00951696937
95156.9087172135
95156.7968678997
95156.67217513356
95156.53235000501
95156.37456947188
95156.19539095572
95155.99070924183
95155.75560310444
95155.48310099739
95155.16387195236
95154.79433812526
95157.4143992607
95157.40601535815
95157.39015026951
95157.36591118337
95157.33354172498
95157.29279083207
95157.24366124206
95157.18615650802
95157.12029071551
95157.04598111653
95156.96295262399
95156.87065193862
95156.76818112917
95156.65425354986
95156.52716222586
95156.38474265389
95156.22431875301
95156.04265453693
95155.83594149406
95155.59947454814
95155.32646137409
95155.00926074228
95154.64541646186
95157.28057004792
95157.27217833087
95157.25632808599
95157.23216778475
95157.19993971399
95157.15940767183
95157.11053672609
95157.05326751356
95156.98752903477
95156.91315414294
95156.82980264362
95156.73688866956
95156.63352231866
95156.5184684703
95156.39011324014
95156.24642259994
95156.08489227956
95155.9025277232
95155.6958309055
95155.46036552932
95155.1897706201
95154.87795286428
95154.52430622425
95157.14940915951
95157.1410478926
95157.12527748971
95157.10128722164
95157.06931089242
95157.02912624429
95156.98066994624
95156.92383741227
95156.85849619284
95156.78441946578
95156.70122461887
95156.60831271271
95156.50481811582
95156.38957014975
95156.26105898793
95156.1173947408
95155.95626767825
95155.77495017466
95155.57027018601
95155.33811413654
95155.07269568858
95154.76937817252
95154.42937777939
95157.02081743022
95157.01252258853
95156.99689538746
95156.97316513043
95156.94155228953
95156.9018485648
95156.85397050116
95156.7977833403
95156.73311343827
95156.65969596829
95156.57712616269
95156.48480970881
95156.38192003984
95156.26736346867
95156.13974636077
95155.99733768364
95155.83804139125
95155.65941439311
95155.45862259965
95155.23192051328
95154.97417719987
95154.68209277399
95154.35838031916
95156.89466173152
95156.88646540054
95156.87103976587
95156.84765322057
95156.81651003024
95156.77741634277
95156.73027585962
95156.67493634424
95156.6112002611
95156.53878367947
95156.45727771947
95156.36610855727
95156.26450187174
95156.15145223754
95156.02569325072
95155.88566542136
95155.72950054886
95155.55505042696
95155.35982621602
95155.14048370313
95154.89258339183
95154.61401272779
95154.30861051135
95156.77077418004
95156.76270370863
95156.74753083455
95156.7245620857
95156.69398431502
95156.65561892225
95156.60936316528
95156.55505790458
95156.49249621468
95156.42139111925
95156.34134521833
95156.25181889223
95156.15210135859
95156.04128488008
95155.91823907386
95155.78158518855
95155.62969138517
95155.46070798104
95155.27249337058
95155.06212455583
95154.82585480662
95154.56260236898
95154.27701456935
95156.64895490056
95156.64103263697
95156.62615543844
95156.60366708561
95156.57373711464
95156.53620317069
95156.49096167182
95156.43785523162
95156.37667933895
95156.30715711846
95156.22891553864
95156.14146049971
95156.04415390655
95155.93619292333
95155.81658915823
95155.68414970877
95155.5374819038
95155.37503201661
95155.19500175409
95154.99489588069
95154.77163780917
95154.52502645901
95154.26027503083
95156.52897675597
95156.5212201181
95156.50667280806
95156.48471505431
95156.4555000758
95156.41888279152
95156.37476361029
95156.32299382819
95156.26338064909
95156.1956676151
95156.11951616645
95156.03448649391
95155.9400199919
95155.8354234672
95155.71985340801
95155.59230368544
95155.45161821104
95155.29653096446
95155.12557688872
95154.93668261793
95154.72740360822
95154.49827998754
95154.25490805547
95156.41059106366
95156.40301273314
95156.3888207408
95156.367431003
95156.33898195712
95156.30334670408
95156.26043368633
95156.21010826598
95156.1521964243
95156.08646983103
95156.01263180305
95155.93030301017
95155.83900866509
95155.73816735826
95155.62708024189
95155.50492491981
95155.37077448585
95155.22363737227
95155.0623658844
95154.88529204989
95154.69055482281
95154.4793081346
95154.25738895236
95156.29353364547
95156.28614179346
95156.27232186245
95156.25152469352
95156.22387571051
95156.1892668731
95156.14761789069
95156.09881218619
95156.04269960985
95155.97908533242
95155.90771946852
95155.82828686511
95155.74039842711
95155.64358409884
95155.53728654304
95155.42086051209
95155.29359679986
95155.15476086937
95155.0035015231
95154.83853122219
95154.65851703033
95154.46511101436
95154.26427505013
95156.17753090101
95156.17032942137
95156.15688982968
95156.13669708066
95156.10986535541
95156.07630583923
95156.03595192083
95155.9887078211
95155.93445062065
95155.87302231199
95155.80422251938
95155.72780171059
95155.64345607275
95155.55082409389
95155.44948415826
95155.338958564
95155.21874104324
95155.08833346778
95154.94715641068
95154.79427153507
95154.62881481272
95154.45283228628
95154.27231525299
95156.06230571575
95156.05529445407
95156.04223532164
95156.02264648021
95155.99663249945
95155.9641237732
95155.92506898944
95155.87939477383
95155.82700729591
95155.76778693651
95155.70158361905
95155.62821290383
95155.54745383165
95155.45904851865
95155.36270304372
95155.25809524255
95155.14490459939
95155.0228466207
95154.89158631064
95154.7504990606
95154.59912938233
95154.43982475127
95154.27852753625
95155.94758306943
95155.94075805749
95155.92807173314
95155.90907442501
95155.88386248214
95155.85238508177
95155.81460708762
95155.77047814497
95155.71993409196
95155.66289378278
95155.59925660821
95155.52890098227
95155.45168462761
95155.36744662024
95155.27601093987
95155.17719721611
95155.07085200462
95154.95688045573
95154.83516333961
95154.70535210177
95154.56734078097
95154.42369793956
95154.28025531248
95155.83309528593
95155.82644900038
95155.81412054862
95155.79569121687
95155.77125022576
95155.74076470597
95155.70421588818
95155.66157619403
95155.61281063178
95155.55787537758
95155.49671710577
95155.42927342995
95155.35547515968
95155.27525028963
95155.18852964095
95155.09525982379
95154.99543505876
95154.88912585768
95154.77639975112
95154.65714640704
95154.53155335525
95154.40234262063
95154.27518973559
95155.71858676728
95155.71210846231
95155.70011629509
95155.68222109463
95155.65850571427
95155.62895401733
95155.59356317067
95155.55232738717
95155.50523943889
95155.45229065021
95155.39347169918
95155.32877463115
95155.25819667573
95155.18174573859
95155.09944762557
95155.01136057878
95154.91760697866
95154.81839887149
95154.71396224636
95154.60438837633
95154.49010676322
95154.37393805805
95154.26137119006
95155.60381796055
95155.59749415299
95155.58581087695
95155.56840682011
95155.54535887964
95155.51666606092
95155.48234048497
95155.44239654236
95155.39685261127
95155.34573216618
95155.28906575718
95155.22689426562
95155.15927392618
95155.08628293408
95155.00802981418
95154.92466900942
95154.83643199374
95154.74364958199
95154.64667940434
95154.54577995649
95154.44157683336
95154.33694693827
95154.23717623921
95155.48856877934
95155.48238387379
95155.47097728167
95155.4540135408
95155.43156366789
95155.40363988852
95155.37026782102
95155.33147989857
95155.28731734017
95155.23783212739
95155.1830899099
95155.12317422012
95155.05819239395
95154.98828296798
95154.91362483928
95154.83445351453
95154.75109132366
95154.66396650758
95154.57354343592
95154.48021632378
95154.38476714067
95154.29009829997
95154.20128880577
95155.37264360572
95155.36658032369
95155.35541403064
95155.33883287932
95155.31690189341
95155.2896443316
95155.2570974362
95155.21930910143
95155.17634012006
95155.1282668299
95155.07518472892
95155.01721340971
95154.95450312371
95154.88724270143
95154.8156692214
95154.74008464394
95154.66088496367
95154.5785761351
95154.493706521
95154.40677774115
95154.31869461421
95154.23236485974
95154.15266714271
95155.25588143973
95155.24992091744
95155.23895443961
95155.22269145901
95155.20119099025
95155.17448499809
95155.14262015873
95155.10565690084
95155.06367194119
95155.01676143418
95154.96504511713
95154.90867176981
95154.84782621881
95154.78273756565
95154.71368915687
95154.64103544164
95154.56523004678
95154.48683863455
95154.40647298995
95154.3247169184
95154.24257012688
95154.1629342685
95154.09050266685
95155.13816879591
95155.13229146061
95155.12148182675
95155.10546727377
95155.08430094428
95155.05802126027
95155.02668210395
95154.9903534443
95154.94912411351
95154.90310532782
95154.85243523233
95154.79728474097
95154.7378648289
95154.67443492064
95154.60731303322
95154.5368927997
95154.46367054866
95154.38825516743
95154.31130314597
95154.23345796793
95154.15579101176
95154.08119293605
95154.01419521957
95155.01941539186
95155.01360109105
95155.00290715831
95154.98707029768
95154.96613787525
95154.94015290882
95154.90917455747
95154.87327954722
95154.8325650724
95154.7871525801
95154.73719259039
95154.68287080455
95154.62441561131
95154.56210660833
95154.49628491247
95154.42737037138
95154.35588782086
95154.28247416976
95154.20781384477
95154.13259069234
95154.05793001645
95153.98671054226
95153.92332691159
95154.89916208849
95154.89341209424
95154.88280675097
95154.86708415321
95154.84628944634
95154.82046917382
95154.78968536464
95154.75401801341
95154.71356839218
95154.66846310605
95154.61885909643
95154.5649498928
95154.50697322936
95154.44521963362
95154.38004283111
95154.31187709182
95154.24126301701
95154.16885277626
95154.09534570064
95154.02144994598
95153.94832918752
95153.87885342573
95153.81726885667
94789.90886436818
94884.6133168705
95118.16599770379
95279.31413969563
95412.32537866205
95381.70732616248
95384.03021009949
95388.65288113356
95326.44395123802
95274.41220944154
95255.73798030929
95258.41804250574
95250.73367586744
95234.67589567785
95233.15429553922
95238.0293437738
95193.04381747764
95194.21816140752
95199.24932803857
95206.23991423276
95158.7155105898
95158.77675928624
95158.99744393192
95159.42173253441
95157.33489272109
95157.05655284871
95156.85234273181
95156.67414108888
95157.33623391397
95157.1281469192
95156.93205810705
95156.73664588484
95157.13796894875
95156.93150419171
95156.74141495027
95156.55617026225
95156.94176744467
95156.74741955136
95156.56437308638
95156.37779823065
95156.71730095588
95156.5216380128
95156.333074059
95156.13699518611
95156.46362120684
95156.26463920625
95156.06796989019
95155.85932088808
95156.19013837079
95155.98614783406
95155.77834483725
95155.55434520659
95155.90599214369
95155.69568655046
95155.47510035287
95155.23518150052
95155.62102356712
95155.40350557541
95155.17008239693
95154.91555633594
95155.34455721485
95155.1197234604
95154.8754138912
95154.60916634359
95155.08499844953
95154.85418956474
95154.60275480364
95154.32874494721
95154.84939239714
95154.61556047791
95154.36149426602
95154.08422025104
95154.64266458078
95154.40955391656
95154.15704675714
95153.88072078228
95154.46833749725
95154.23970173238
95153.99218671881
95153.72018109955
95154.32800928205
95154.10649141988
95153.86697694845
95153.6021201421
95154.21912899656
95154.00697155044
95153.77777562609
95153.52274345014
95154.13896144499
95153.93774683015
95153.72056375002
95153.47775120081
95154.08452013094
95153.8953526417
95153.69142618813
95153.46282675928
95154.05259726936
95153.87626184261
95153.6865048086
95153.4736330444
95154.03975092924
95153.87679210142
95153.70183752592
95153.5057098727
95154.04230867657
95153.89304775291
95153.73325613093
95153.55441298461
95154.05641800862
95153.92093119155
95153.77636750345
95153.61490644632
95154.07818063696
95153.95628665846
95153.82671633498
95153.68234394539
95154.10379564149
95153.9950630177
95153.87996855445
95153.75205366446
95154.12969562387
95154.03347259344
95153.93209266546
95153.8197248873
95154.15263495143
95154.06808822026
95153.97946522689
95153.88151780239
95154.1697577678
95154.09592060262
95154.0189572286
95153.93415275955
95154.17861579674
95154.11443148692
95154.0479400357
95153.97490714819
95154.17716269297
95154.121522466
95154.06426740333
95154.00158990768
95154.16373443296
95154.11551015411
95154.06624418743
95154.01250112797
95154.13700765678
95154.09507514969
95154.05256513291
95154.00636080289
95154.09595726214
95154.05921148436
95154.02225319779
95153.98223260489
95154.0397996134
95154.00715942965
95153.97458217676
95153.93943712117
95153.96797074212
95153.93839166089
95153.90907413619
95153.87755356221
95153.8801181637
95153.8525798987
95153.82541744273
95153.7962858572
95153.77549906672
95153.74898838688
95153.72291733896
95153.69504809102
95463.05853712599
95447.93651184949
95460.42265872235
95493.99665063471
95509.8027972353
95506.50540778751
95506.4106374496
95515.48712118258
95527.84278577653
95534.00431352382
95536.7227963875
95538.64323570047
95540.72530250976
95542.94721475849
95544.66828190016
95545.90766225317
95546.66328362035
95547.10608553261
95547.35829895012
95390.49754149694
95375.31603098534
95385.9025445186
95416.9562493009
95431.02754650042
95434.3881065879
95441.69582573773
95455.78073956921
95475.49411584907
95503.29983367186
95523.41002627727
95537.60655429316
95541.54730981178
95544.29979799838
95546.13517842304
95547.38929362425
95547.9129801071
95548.15932126454
95548.33719343902
95277.51833531575
95292.00384529134
95309.30052915365
95327.92243520996
95342.28556681355
95351.47582295538
95362.74121894645
95381.13682469448
95407.51580328471
95438.49677971614
95467.13647180705
95494.0843143415
95527.41886577851
95545.60747210115
95548.79564497762
95549.37825416707
95549.23229408197
95549.06784939535
95549.09932807359
95248.89352439441
95259.1541138461
95254.30399533252
95251.38043322375
95248.04680749978
95248.22322077191
95258.14772614429
95278.87998654562
95307.78193912223
95343.56632988258
95382.90931922194
95426.03673581195
95479.26072184708
95520.46057016567
95551.02816540505
95551.8430307776
95550.48943394562
95549.42269610606
95549.17663945486
95210.53048177417
95205.44746525031
95203.262740181
95202.74864270716
95200.77932903175
95197.37313654969
95198.24878798173
95201.94887381697
95214.04850196987
95240.1180008223
95279.22732449268
95324.17796107252
95388.09192516502
95467.38573051192
95534.65093694658
95553.21849072796
95551.28187806386
95548.7166315113
95547.72649728334
95159.4871171062
95158.19087412687
95156.56553362748
95155.51127702421
95155.20974384666
95155.20210158725
95155.35012291787
95156.12540935994
95167.46212478954
95186.39167416481
95207.25790534819
95220.71484828394
95288.01360170083
95372.95960149256
95475.2814903446
95544.0287747566
95548.86233649951
95545.74863432578
95542.82787383354
95156.46642357628
95156.14717421681
95155.71688258658
95155.36051473998
95155.11555602537
95155.02349376523
95155.06603133716
95155.1613870013
95155.51545358812
95156.14103036902
95157.74591118579
95164.69089898036
95201.08612678606
95275.83300957433
95383.50628766319
95494.67371574578
95537.17729283971
95540.12377554835
95530.32846525678
95156.43747663735
95156.0713452794
95155.63265946014
95155.20848639829
95154.87370803024
95154.66205070059
95154.57238050204
95154.57047384777
95154.85702563501
95155.28399663052
95155.56617858837
95153.65862523364
95156.28413883338
95189.12090126435
95292.77000667987
95420.69986941066
95537.40601504696
95528.86811169429
95499.37510982236
95156.27438680296
95155.88051439142
95155.41070880873