/*--------------------------------*- C++ -*----------------------------------*\
| =========                 |                                                 |
| \\      /  F ield         | OpenFOAM: The Open Source CFD Toolbox           |
|  \\    /   O peration     | Version:  2206                                  |
|   \\  /    A nd           | Website:  www.openfoam.com                      |
|    \\/     M anipulation  |                                                 |
\*---------------------------------------------------------------------------*/
FoamFile
{
    version     2.0;
    format      ascii;
    arch        "LSB;label=32;scalar=64";
    class       volScalarField;
    location    "0.35";
    object      p_rgh;
}
// * * * * * * * * * * * * * * * * * * * * * * * * * * * * * * * * * * * * * //

dimensions      [1 -1 -2 0 0 0 0];

internalField   nonuniform List<scalar> 
2268
(
96283.00749289183
96284.66920025677
96283.08258490275
96280.82601476391
96277.82218195214
96274.11468775116
96269.91317817259
96265.5580950906
96261.46874779319
96258.13819287298
96256.14803417074
96256.17686525495
96258.99904396883
96265.47544306722
96276.53332226646
96293.10826142525
96316.05073320743
96346.18583112389
96383.79353687089
96428.20709017263
96477.21343299253
96523.6672115962
96571.56855769701
96281.88374785802
96283.50822353901
96281.94455851591
96279.69268221546
96276.68076804547
96272.95719734982
96268.7422006204
96264.3750306078
96260.27193624915
96256.9248964529
96254.91452940062
96254.91697590714
96257.70152907487
96264.11900749679
96275.07854567845
96291.53746886135
96314.34408907387
96344.26606103514
96381.6751737397
96426.08950710438
96475.63495120079
96523.25866326045
96573.54144393282
96280.28788999164
96281.86072351997
96280.32018217078
96278.06922122097
96275.03668562166
96271.27860365689
96267.02574294934
96262.6151660563
96258.45865446709
96255.04582729648
96252.95511953953
96252.85892472473
96255.52025976534
96261.78035096452
96272.53893361476
96288.75204312484
96311.02540619913
96340.3970011026
96377.12362240723
96420.75024935282
96469.64245251525
96516.79084784815
96568.17842623151
96277.97009664563
96279.47047671878
96277.9262334104
96275.65092737385
96272.56749098765
96268.74105302406
96264.41203671951
96259.91503021198
96255.6568978735
96252.12397097614
96249.89134280515
96249.62606205196
96252.08195370989
96258.08299846599
96268.48573831809
96284.05167372756
96305.90285366694
96334.43397110215
96370.00608108914
96412.12818186196
96459.34622239506
96504.79451052059
96556.6976666783
96275.01054240455
96276.44103638596
96274.87423191972
96272.55615968487
96269.39865393969
96265.47585028133
96261.03603987391
96256.4111452659
96252.00305115162
96248.29413224891
96245.85528251321
96245.3472890493
96247.51363128216
96253.16063935185
96263.11857411657
96278.18494350663
96299.13919648346
96326.49980513935
96360.42353273122
96400.22423697294
96444.44186763219
96486.31371493409
96536.93204926496
96271.40607922991
96272.78914603511
96271.19153195464
96268.82147871715
96265.57644099004
96261.53637533721
96256.95460173365
96252.15995012995
96247.54900897093
96243.59921091424
96240.87608055104
96240.03301521558
96241.80191202673
96246.96960288825
96256.33239095808
96270.61640843854
96290.53352893847
96316.43069710647
96348.23508639685
96384.8347752337
96424.29061852679
96459.34539442958
96503.36275525377
96266.81370139624
96268.18556344253
96266.56025712437
96264.14052967387
96260.81273718728
96256.65661417526
96251.92684627467
96246.94885848839
96242.11360488975
96237.89244790749
96234.84410539617
96233.61307020448
96234.91818952776
96239.526100178
96248.20220247247
96261.63136875845
96280.2448461863
96304.35180141724
96333.53315421745
96365.94203668422
96398.34838585174
96421.33316594665
96445.50801303041
96260.55674942922
96261.87120010928
96260.17780241767
96257.65651098639
96254.20566594011
96249.90103560583
96244.99439773231
96239.8089162541
96234.73170880848
96230.22895557671
96226.85245904457
96225.23604508318
96226.08096940712
96230.1255957854
96238.09160654391
96250.58901196804
96267.89422739448
96290.05952117815
96316.29887605144
96343.70189728093
96366.56021830936
96370.28072969233
96346.315911671
95524.26481476832
95524.51914067051
95524.98035417635
95525.61937628085
95526.46409426387
95527.53481450157
95528.84746029584
95530.37767232444
95532.0916253449
95533.93192878042
95535.81728456884
95537.66373845539
95539.40744779856
95540.99536841296
95542.38046513684
95543.52632050445
95544.40808464073
95545.01042322897
95545.32681411951
95524.24893757381
95524.50950359413
95524.97494458313
95525.61302600868
95526.45301270185
95527.52035556542
95528.83522424773
95530.37025118431
95532.09255092419
95533.94544360679
95535.84460234054
95537.70260533238
95539.45711722657
95541.0551336146
95542.44743484732
95543.59693971065
95544.4796413367
95545.08186780069
95545.39920061045
95524.21216175024
95524.49065134143
95524.96995479142
95525.60108577936
95526.43029762154
95527.49156009857
95528.81039187581
95530.35566566014
95532.09482873404
95533.97379895064
95535.90108615154
95537.78162175271
95539.55720907735
95541.17526845433
95542.58155053548
95543.73733872817
95544.62018399309
95545.22021534824
95545.5374233742
95524.14923305679
95524.462870011
95524.95307839403
95525.58516723989
95526.39481016771
95527.4448804322
95528.771488561
95530.33253957451
95532.09727779047
95534.0169590685
95535.98728991202
95537.90029565275
95539.70696437942
95541.35604648167
95542.78379216576
95543.94835637503
95544.82976944504
95545.42469161304
95545.74029234379
95524.04977819104
95524.41836862273
95524.94093933882
95525.5709155661
95526.34580590557
95527.38079957962
95528.71889859429
95530.30107640577
95532.09846969256
95534.07663204987
95536.10601039849
95538.05879937233
95539.90535438588
95541.59784274084
95543.05520262916
95544.23066423213
95545.10784940125
95545.69355460582
95546.00548683325
95523.89342766433
95524.39902648915
95524.92058473795
95525.53349688221
95526.28503920531
95527.30697247792
95528.65731029608
95530.26385229656
95532.09663860222
95534.15689133332
95536.26369373499
95538.25925820343
95540.15153741637
95541.90149052622
95543.39720547081
95544.58505462144
95545.45328003241
95546.02391348065
95546.32936947832
95523.68784920499
95524.32354080216
95524.90804978045
95525.60799659534
95526.21251762826
95527.21092678147
95528.59830260043
95530.22865393861
95532.08937971956
95534.26543664031
95536.46916444889
95538.5023618237
95540.44355218994
95542.26895373127
95543.81211193519
95545.01273135404
95545.86424557299
95546.41149911628
95546.70665365597
95523.43113940097
95583.87199824114
95567.78051155833
95525.55756795159
95526.23455656391
95527.16054034083
95528.55834215732
95530.20502008728
95532.07137558082
95534.41420140032
95536.74512337336
95538.7706742938
95540.76556474385
95542.70083328219
95544.3018330279
95545.5150989472
95546.33772323519
95546.84995803799
95547.12968841604
96249.60563462327
96250.74953596495
96248.96328548224
96246.22415155165
96242.52102802559
96237.92538767037
96232.67384426406
96227.08404354825
96221.53738662039
96216.49153044743
96212.48616209201
96210.13533724508
96210.10521002181
96213.07306347818
96219.66354774097
96230.38299540301
96245.46120032722
96264.33369264274
96285.45181474998
96303.48574753113
96304.88996364662
96254.27816030539
95954.27592321763
96233.42346484731
96234.42862067182
96232.50491357179
96229.47441331077
96225.34156741762
96220.18181963084
96214.21797724644
96207.74996708606
96201.14589791269
96194.85534926273
96189.41658338399
96185.4473611615
96183.60933745989
96184.5169333512
96188.52252612724
96195.55147778941
96205.37390242192
96219.60243683142
96236.07141983346
96249.23751676662
96249.13113834133
96225.00994294047
96168.53874971087
96212.16478600814
96213.01291925866
96210.81360602895
96207.30345828702
96202.48786065615
96196.43529362528
96189.34624583799
96181.49084787063
96173.21250554756
96164.94753931972
96157.24802242382
96150.79822225752
96146.41602825216
96145.04318875722
96147.70192214163
96155.46011973181
96167.78801580836
96180.06798891882
96193.82453592245
96208.35107904262
96218.22827813054
96214.57490024655
96192.83556311784
96172.90977790828
96173.15757717508
96167.96959845221
96158.86484109088
96145.38596581593
96126.73495256955
96102.1717861803
96071.23037914542
96033.95457378114
95991.10161543264
95944.37388660888
95896.56774571873
95851.5692187087
95814.36538353827
95787.3369760356
95782.12439244297
95807.81023501074
95858.53832826324
95943.04055475396
96044.62507475741
96160.64159572423
96183.4627776516
96187.0118325275
95569.21750462799
95567.81780905559
95551.35464820816
95524.10033830701
95488.74542387902
95447.12794135579
95401.60537372566
95354.85597855492
95309.54754043366
95268.00847653374
95232.05432097559
95202.83833560284
95180.80243128084
95165.6178314212
95160.93893167877
95160.79635769413
95163.19524498878
95179.62767968308
95214.75564393609
95276.12111049822
95370.77057860474
95516.7342581743
95694.34622090439
95161.09467746962
95161.09959230507
95161.08792793164
95161.07188659797
95161.04925496869
95161.02048484662
95160.98383543093
95160.94018625696
95160.89100065047
95160.83834323988
95160.78527505523
95160.73629163062
95160.70076261106
95160.6921112398
95160.66545062105
95160.61873120212
95160.53314431713
95160.38356183722
95160.24185912596
95160.12465337185
95160.05771764198
95159.99491794602
95165.29920283679
95160.94531483728
95160.94145976209
95160.92836064825
95160.91126059936
95160.88646425591
95160.85430697464
95160.81542317398
95160.77020142286
95160.72028659767
95160.66771613881
95160.61531910668
95160.56586067664
95160.52411432327
95160.49490072591
95160.46495373448
95160.41699229897
95160.3345141933
95160.22028135626
95160.10015506497
95159.97460119946
95160.68665241642
95160.5789754828
95159.95173852039
95160.82331669182
95160.81689023906
95160.80387918731
95160.78590366487
95160.76124150051
95160.72941592324
95160.69089040713
95160.64613206612
95160.59622919273
95160.54302542523
95160.48899814535
95160.44030190741
95160.387854571
95160.33583109188
95160.29094879251
95160.24014060987
95160.16955203124
95160.07071561026
95159.94241320436
95159.77948387628
95159.56853785942
95159.33069302682
95159.04487274258
95160.73567060121
95160.72818150082
95160.71630933684
95160.69886254317
95160.67472885197
95160.64334845889
95160.60467720299
95160.5590605523
95160.50750326832
95160.45185267815
95160.40275013016
95160.41382148478
95160.36380234797
95160.23756085394
95160.16067626607
95160.10293637449
95160.05112984475
95160.0342303697
95159.92650512238
95159.68202403806
95159.4486018257
95159.2148066157
95158.93254337361
95160.67122251481
95160.66476123664
95160.65310645201
95160.63549503975
95160.6110186642
95160.57890446669
95160.53889051176
95160.49121759528
95160.43690702718
95160.37756271393
95160.34218383845
95160.35862134772
95160.29195751963
95160.18127619903
95160.1337123893
95160.09254187479
95160.15732732766
95160.04944443231
95159.89606120689
95159.54543455802
95159.32736721542
95159.09687627223
95158.82387849592
95160.62077581728
95160.614913899
95160.60304240546
95160.58462286013
95160.55892323203
95160.52507352107
95160.48291089159
95160.43277297751
95160.37649267571
95160.31280731635
95160.24901057749
95160.19980770322
95160.10603305927
95160.12932091318
95160.24657265699
95160.17061344744
95160.03608769715
95159.82099299699
95159.56048670474
95159.40232645589
95159.21217066253
95158.98187197545
95158.70891083672
95160.577824782
95160.57193678842
95160.5592859516
95160.53956283721
95160.51215483445
95160.47624852369
95160.43195269376
95160.37981282742
95160.32346818651
95160.25678494929
95160.1851528102
95160.11241012783
95160.04417259184
95160.00545184806
95160.05911729751
95159.95070454627
95159.7002434765
95159.58336524713
95159.44938857472
95159.28964138303
95159.09569449638
95158.85912306179
95158.57715487487
95160.5387808831
95160.5323736155
95160.51883450319
95160.49776320053
95160.46872442139
95160.431061601
95160.38510777104
95160.3320160314
95160.27389922409
95160.20409578593
95160.1319950817
95160.05795308443
95159.98484027277
95159.9017128642
95159.8050955931
95159.70655346736
95159.60361742228
95159.48699614026
95159.34868245664
95159.18072207663
95158.97614426877
95158.7273737542
95158.43068830189
95160.50232812908
95160.49534380897
95160.48106190683
95160.45889508771
95160.42862365668
95160.38971920271
95160.34272804215
95160.28903531737
95160.22804465261
95160.15748247273
95160.08318592557
95160.00531050339
95159.92275941576
95159.83062283568
95159.73093205856
95159.63443428295
95159.527651422
95159.4018238805
95159.25105421497
95159.06965163433
95158.85150659949
95158.58845112115
95158.27480669745
95160.46841991406
95160.46095042631
95160.4461993795
95160.4232524938
95160.39215218827
95160.35246689338
95160.30486148132
95160.2501741171
95160.18600159032
95160.11567971877
95160.03871603972
95159.95677397361
95159.86914131799
95159.77619244838
95159.67975794052
95159.57548728713
95159.4555213108
95159.31621297359
95159.15230910014
95158.95781200145
95158.72633654579
95158.44879401814
95158.11806497934
95160.43730711265
95160.42949951834
95160.41441876229
95160.39097117857
95160.35932955134
95160.31911792247
95160.27087585552
95160.21530472946
95160.15043894977
95160.07860099178
95160.00071327493
95159.91729526971
95159.82864345518
95159.73401196624
95159.63043836242
95159.51421091925
95159.38331424478
95159.23279156463
95159.05726686714
95158.85075770598
95158.60682335684
95158.31555792326
95157.96945788131
95160.40914182545
95160.40113236023
95160.38578032931
95160.36201142801
95160.3300060668
95160.28942626875
95160.24051980882
95160.18353335268
95160.11898580326
95160.04702784496
95159.9684646424
95159.88354811356
95159.79178956675
95159.69158775045
95159.58067667605
95159.4565235561
95159.3161815948
95159.15599626777
95158.9701691963
95158.75315497266
95158.4984534862
95158.19543576761
95157.83731862117
95160.38396679822
95160.37581944762
95160.36026065082
95160.33626320165
95160.30401748905
95160.26321387969
95160.21404039091
95160.15677584516
95160.09176233906
95160.0192816872
95159.93950033496
95159.85228843523
95159.75695620861
95159.6521106708
95159.53564750652
95159.40480864659
95159.2566643749
95159.08850326667
95158.89404578236
95158.66862861867
95158.40549087006
95158.09364758192
95157.72785332653
95160.36173653674
95160.35348043042
95160.33776643543
95160.31361311812
95160.28123087388
95160.24033077399
95160.19103624026
95160.13354719897
95160.06811079223
95159.99486732436
95159.91376419454
95159.82444762906
95159.72609981317
95159.61732419058
95159.49617524431
95159.36023470701
95159.20658538696
95159.03164517581
95158.83098173694
95158.59952346962
95158.33062146349
95158.01297224963
95157.6442627705
95160.34237306558
95160.3340355664
95160.31821697214
95160.29398027439
95160.26155496603
95160.22066863965
95160.17137722045
95160.11378193522
95160.04802082016
95159.97412109407
95159.89189396091
95159.80084236321
95159.70007687187
95159.58825229945
95159.46356175229
95159.3237269658
95159.16594155002
95158.9867619662
95158.78208106772
95158.54698942158
95158.27454960142
95157.95552438403
95157.58656348298
95160.32580643005
95160.31742189109
95160.30155554476
95160.27731379263
95160.24493743936
95160.20417143172
95160.15501762259
95160.09748676978
95160.03160561822
95159.95729920467
95159.87428932128
95159.78201217605
95159.67955953765
95159.56563807705
95159.43854255363
95159.29611678787
95159.13568934987
95158.95402250504
95158.74730772627
95158.51084706323
95158.23786917982
95157.92079288523
95157.55731246959
95160.31197628513
95160.303583652
95160.28773230394
95160.26357084421
95160.23134106923
95160.19080518269
95160.14192642168
95160.08464593181
95160.0188972316
95159.94451895928
95159.86117233909
95159.76826650948
95159.66490479109
95159.54984954451
95159.42148966629
95159.2777947373
95159.11626106896
95158.93389290651
95158.72719261666
95158.49172741904
95158.22114728845
95157.90939180275
95157.55594107417
95160.30081337114
95160.29245147404
95160.27668013956
95160.25268895434
95160.22071180443
95160.1805262609
95160.13206840926
95160.07523293016
95160.00988745347
95159.935806536
95159.85260898086
95159.75969555695
95159.65619899701
95159.54094779002
95159.41243285322
95159.26876508447
95159.10763447513
95158.92631287551
95158.72162845242
95158.48946904743
95158.22405319288
95157.92075965543
95157.58084704718
95160.29222046188
95160.2839251423
95160.26829703973
95160.24456572581
95160.21295164899
95160.17324648108
95160.12536679272
95160.06917774375
95160.00450543237
95159.93108487329
95159.84851152645
95159.7561915046
95159.65329844742
95159.53873860657
95159.41111824116
95159.26870618538
95159.10940615534
95158.93077484946
95158.72997816892
95158.50327104029
95158.24552437552
95157.9534446066
95157.62976308243
95160.28606381062
95160.27786695564
95160.26244037857
95160.23905269071
95160.20790812546
95160.16881270945
95160.12167008579
95160.06632807507
95160.00258923646
95159.93016968342
95159.84866056671
95159.75748816055
95159.6558782686
95159.54282548829
95159.41706329773
95159.27703203069
95159.12086332099
95158.94640880958
95158.7511795387
95158.5318313366
95158.28392527549
95158.00535105061
95157.69995432819
95160.28217466951
95160.27410369914
95160.25892990542
95160.23596001406
95160.20538088093
95160.1670137982
95160.12075591716
95160.066448089
95160.003883493
95159.93277530439
95159.85272624483
95159.76319675754
95159.66347607129
95159.55265641341
95159.42960732014
95159.29294992283
95159.14105223764
95158.97206441803
95158.78384470921
95158.57347003803
95158.33719379103
95158.07393494026
95157.78834313372
95160.28035353158
95160.272430855
95160.25755280459
95160.23506336087
95160.2051320813
95160.16759653213
95160.12235302317
95160.06924411704
95160.00806535772
95159.93854000511
95159.86029517498
95159.77283686717
95159.6755270172
95159.56756276081
95159.44795563442
95159.31551262589
95159.16884091814
95159.0063866188
95158.82635128654
95158.62623958808
95158.40297492591
95158.1563564652
95157.8915981738
95160.28037353407
95160.27261651955
95160.25806839889
95160.23610957366
95160.20689329739
95160.17027443621
95160.12615330862
95160.07438115196
95160.01476519035
95159.94704906234
95159.87089434046
95159.78586133174
95159.69139149241
95159.58679162498
95159.47121815542
95159.3436648466
95159.20297546621
95159.04788383449
95158.87692475533
95158.68802477091
95158.47873930905
95158.24960862639
95158.00622934014
95160.28198567044
95160.27440701371
95160.2602142658
95160.23882349959
95160.21037319682
95160.17473642538
95160.13182154472
95160.08149384665
95160.02357931077
95159.95784968283
95159.88400840136
95159.80167625537
95159.71037853419
95159.60953384299
95159.49844328681
95159.37628436994
95159.24213004786
95159.09498860031
95158.93371220324
95158.75663280505
95158.56188934474
95158.3506358748
95158.1287095778
95160.28492591776
95160.27753377944
95160.26371314298
95160.24291498902
95160.21526479087
95160.18065449162
95160.13900372967
95160.09019585287
95160.03408068887
95159.97046345992
95159.89909438799
95159.81965844042
95159.73176661231
95159.63494888092
95159.52864787761
95159.41221826572
95159.28495070768
95159.14611052049
95158.99484638528
95158.82987069576
95158.64985052057
95158.45643806858
95158.25559542613
95160.2889206227
95160.28171888767
95160.26827863396
95160.24808494173
95160.22125204551
95160.18769112781
95160.14733551715
95160.10008935683
95160.0458296877
95159.98439853116
95159.91559560229
95159.83917148641
95159.75482247122
95159.66218709512
95159.56084372802
95159.45031459135
95159.33009329389
95159.19968156723
95159.05849986823
95158.90560980111
95158.74014736136
95158.56415876065
95158.38363552665
95160.2936926758
95160.28668117854
95160.27362141763
95160.25403166916
95160.22801655906
95160.19550648954
95160.15645009856
95160.11077393388
95160.05838411163
95159.99916102075
95159.93295465843
95159.85958069695
95159.77881828512
95159.69040960513
95159.59406073873
95159.48944945875
95159.37625513523
95159.25419313957
95159.12292836202
95158.98183613902
95158.83046102029
95158.67115067593
95158.50984773213
95160.29896704855
95160.29214180884
95160.27945487764
95160.26045668985
95160.23524365353
95160.20376496343
95160.16598544225
95160.12185465834
95160.07130838551
95160.01426546776
95159.95062535294
95159.88026655995
95159.80304692428
95159.71880560176
95159.6273665917
95159.52854947557
95159.42220070495
95159.30822530003
95159.18650391704
95159.05668794615
95158.91867147267
95158.77502327473
95158.63157537163
95160.30447605743
95160.29782953979
95160.2855004904
95160.26707029612
95160.24262823966
95160.21214147679
95160.17559120503
95160.13294977078
95160.08418210933
95160.02924437061
95159.96808327019
95159.90063651852
95159.82683504104
95159.74660692415
95159.65988302469
95159.5666099199
95159.46678173717
95159.36046886291
95159.24773871212
95159.12848089318
95159.0028829849
95158.87366724263
95158.74650950883
95160.30996409584
95160.30348554328
95160.29149277603
95160.27359671997
95160.24988029402
95160.22032739289
95160.18493515698
95160.14369772586
95160.09660779184
95160.0436566392
95159.9848349727
95159.92013492616
95159.84955384651
95159.77309974167
95159.69079846835
95159.60270825081
95159.50895138767
95159.40973980476
95159.30529937334
95159.19572130038
95159.08143513383
95158.96526176237
95158.8526904446
95160.31519160161
95160.3088675215
95160.29718363352
95160.27977871946
95160.25672974573
95160.22803575438
95160.19370884536
95160.15376333763
95160.1082175242
95160.05709482783
95160.00042581242
95159.93825143995
95159.87062806297
95159.79763398769
95159.71937780362
95159.63601395026
95159.54777383115
95159.45498814601
95159.35801440508
95159.25711103018
95159.15290365538
95159.0482694219
95158.94849464121
95160.31993847832
95160.3137532687
95160.30234604659
95160.28538144138
95160.26293054254
95160.23500561637
95160.20163226427
95160.16284284899
95160.11867849994
95160.06919113743
95160.01444641438
95159.95452793701
95159.88954315925
95159.81963073579
95159.74496963985
95159.6657953876
95159.58243024928
95159.49530235668
95159.40487595847
95159.31154518861
95159.21609204668
95159.12141917793
95159.03260593484
95160.32400909792
95160.31794547781
95160.30677853532
95160.29019651141
95160.26826450537
95160.24100581932
95160.20845768141
95160.17066791591
95160.12769722236
95160.07962186995
95160.02653735194
95159.96856332973
95159.90585017311
95159.83858683602
95159.76701048198
95159.69142309084
95159.61222060682
95159.52990888135
95159.44503615671
95159.35810396606
95159.2700171489
95159.18368364748
95159.10398247534
95160.3272424512
95160.32128156049
95160.31031441863
95160.2940505618
95160.27254908152
95160.2458419871
95160.21397594172
95160.17701130419
95160.13502469561
95160.08811219719
95160.03639353681
95159.98001756055
95159.91916921397
95159.85407772513
95159.78502653028
95159.71237010388
95159.63656202886
95159.55816787046
95159.47779929638
95159.39604002352
95159.31388977288
95159.23425040983
95159.16181559973
95160.32952504988
95160.32364732698
95160.31283702776
95160.29682160683
95160.27565428206
95160.24937351841
95160.21803318497
95160.18170318181
95160.14047224597
95160.09445152026
95160.04377913974
95159.98862608416
95159.92920344714
95159.86577077903
95159.79864618559
95159.72822332558
95159.65499848702
95159.57958046641
95159.50262564293
95159.42477741529
95159.34710717401
95159.27250578237
95159.20550505412
95160.33076663261
95160.32495193914
95160.31425736385
95160.29841966569
95160.2774862769
95160.25150025176
95160.22052073573
95160.18462439164
95160.14390832813
95160.09849392786
95160.04853170553
95159.99420742631
95159.93574958903
95159.8734379051
95159.80761356904
95159.73869644891
95159.66721134417
95159.593795086
95159.51913200738
95159.44390588354
95159.36924203507
95159.2980193852
95159.23463289905
95160.33050810697
95160.32475774115
95160.31415181808
95160.29842844847
95160.27763282042
95160.25181149748
95160.22102649584
95160.1853577671
95160.14490653007
95160.09979935551
95160.05019319114
95159.9962816152
95159.93830243417
95159.87654624421
95159.81136681557
95159.74319843261
95159.67258168492
95159.60016871158
95159.52665880139
95159.45276007443
95159.37963623022
95159.31015745072
95159.24857022791
95323.83098428871
95418.53289377865
95652.18137281197
95813.38713091766
96071.85364354437
96041.05740234646
96043.36212916096
96048.05281507703
96111.3585471297
96059.32376849154
96040.63390435479
96043.31916942242
96160.99827605275
96144.94175189758
96143.42117853704
96148.29706662547
95790.49064093136
95823.14467536505
95923.7794451745
96101.4732862864
95174.42513727554
95183.21228217232
95195.43601365246
95216.3217666085
95158.87506363986
95158.42418952356
95158.22267707282
95158.04480401294
95158.74887446352
95158.53670627669
95158.33676410938
95158.13783235966
95158.63693921233
95158.42717029472
95158.23428377911
95158.04670903894
95158.54593254863
95158.3498741316
95158.16555337803
95157.97798381583
95158.4328806291
95158.23678122139
95158.0480742814
95157.85192621684
95158.2965663802
95158.09785725732
95157.90177728413
95157.69380491697
95158.14298948797
95157.93967772477
95157.73307209244
95157.51064710504
95157.97922234186
95157.77010444047
95157.55145425865
95157.31428861305
95157.81479465471
95157.59905387716
95157.36831196686
95157.11770944342
95157.65889842281
95157.43629750381
95157.19520782113
95156.93369556269
95157.5197177739
95157.29129419799
95157.04329550829
95156.77428943504
95157.40410300667
95157.17251916771
95156.92176681235
95156.6492464779
95157.31695157073
95157.08579163314
95156.83618308094
95156.56401558622
95157.26188990218
95157.03474940524
95156.78947354932
95156.5207039852
95157.24077891624
95157.02026927497
95156.78229171522
95156.5196926732
95157.25125996265
95157.03969566838
95156.81142754572
95156.55779145951
95157.29067197265
95157.08976008657
95156.8730684724
95156.63102273594
95157.3560029144
95157.16696863943
95156.96326784762
95156.73503501729
95157.44397440289
95157.26768825285
95157.07802006022
95156.86530032412
95157.55108613602
95157.3881411457
95157.213215041
95157.01714033497
95157.67362941672
95157.52436955165
95157.36458357741
95157.18575412092
95157.80773443401
95157.6722448465
95157.52767951469
95157.36621890355
95157.94949604959
95157.8275984731
95157.69802464941
95157.55364899444
95158.09511103622
95157.98637486559
95157.87127670085
95157.74335786732
95158.2410112824
95158.14478497539
95158.04340157784
95157.93103000848
95158.3839509129
95158.29940121564
95158.21077507369
95158.11282419509
95158.52107395462
95158.44723412591
95158.37026792629
95158.28546036081
95158.64993203439
95158.58574534535
95158.51925137243
95158.44621572677
95158.76847871557
95158.71283636718
95158.65557906026
95158.59289911567
95158.87504987665
95158.82682370802
95158.7775557453
95158.72381051275
95158.9683220634
95158.92638786655
95158.88387607047
95158.83766980866
95159.04727007712
95159.01052278072
95158.97356289923
95158.93354057962
95159.11111019453
95159.07846863079
95159.04588993447
95159.01074332124
95159.15927836276
95159.12969801265
95159.10037916453
95159.06885716601
95159.19142206007
95159.16388261422
95159.13671892803
95159.10758601759
95159.20679855086
95159.18028680977
95159.15421465025
95159.12634418698
95977.59803281583
95981.56705381865
95939.0692138867
95700.75112432419
95640.62495454334
95676.74734972605
95690.45391344742
95635.98374386711
95557.31031434375
95535.44911174836
95537.32027962855
95539.22194340122
95541.28195488986
95543.48110858283
95545.18833241549
95546.42254549288
95547.17662333958
95547.6190831616
95547.87124718729
96050.05204906373
96034.87026062317
96045.45589578175
96076.5078795205
96090.57627943999
96093.93285999804
96101.2362927256
96111.1486582334
96012.14564056462
95818.95301411673
95659.17675342104
95562.66968483054
95542.31883445611
95545.01142664146
95546.80235883236
95548.03420529039
95548.54922279262
95548.79312229567
95548.97055706395
96062.42971316341
96076.91944685644
96094.21553918649
96112.83652802242
96127.19839943905
96136.38705401352
96147.65052131703
96166.04386215485
96192.4201321585
96223.3976601551
96252.03257123589
96105.16911339865
95719.31754162205
95550.89882671495
95549.65504569731
95550.17730072567
95550.00091080296
95549.82485690822
95549.85340127717
96159.16247524766
96169.42320371195
96164.57290206625
96161.64901529842
96158.31503001839
96158.49109296979
96168.4150519856
96189.14643540958
96218.04704914078
96253.82942440754
96293.1691898422
96336.29155780272
96387.28924999235
96010.81820225192
95569.93991697334
95552.8216662073
95551.40247382737
95550.30767156569
95550.05233983351
96099.30846158558
96013.120884719
96001.16474154168
95997.0445852913
95957.46026947262
95898.92352789587
95916.08361861855
96035.96106725927
96189.8680094775
96272.44170729772
96314.84622783127
96359.79392761161
96423.70289276708
96502.98808451301
96100.85837170253
95566.56787184939
95552.37235157873
95549.74130382721
95548.72631686619
95214.31078982068
95194.3978145505
95173.79652583931
95157.87044435838
95156.60527475888
95156.59288741113
95156.74693156188
95189.93986800946
95395.81618174462
95753.88450955685
96134.27706617398
96359.52888375755
96448.98233668071
96533.92160400894
96616.97200335431
95986.55051937919
95550.51488836705
95546.94558022298
95543.96006132424
95157.83513455649
95157.51323866671
95157.08110097056
95156.72707220622
95156.49301155614
95156.42350366096
95156.49990119954
95156.63304901027
95157.01714252945
95157.66555061017
95159.29441159865
95528.96768079026
96345.82724140699
96562.1486100256
96669.81295613227
96639.16360369869
95757.94150813892
95541.51923747017
95531.60677852119
95157.83177112803
95157.46086905373
95157.02027073845
95156.59759829724
95156.26860028479
95156.06829177712
95155.99667378711
95156.01909628016
95156.33977743183
95156.81678908016
95157.16018016949
95155.32341176838
95272.83488211239
96241.14261779221
96704.42333369024
96832.33811392284
96422.45288922508
95555.20954434584
95500.82482470621
95157.76149699185
95157.36622186287
95156.89692355307
95156.43181376267