/*--------------------------------*- C++ -*----------------------------------*\
| =========                 |                                                 |
| \\      /  F ield         | OpenFOAM: The Open Source CFD Toolbox           |
|  \\    /   O peration     | Version:  2206                                  |
|   \\  /    A nd           | Website:  www.openfoam.com                      |
|    \\/     M anipulation  |                                                 |
\*---------------------------------------------------------------------------*/
FoamFile
{
    version     2.0;
    format      ascii;
    arch        "LSB;label=32;scalar=64";
    class       surfaceScalarField;
    location    "0.35";
    object      phi;
}
// * * * * * * * * * * * * * * * * * * * * * * * * * * * * * * * * * * * * * //

dimensions      [0 3 -1 0 0 0 0];

oriented        oriented;

internalField   nonuniform List<scalar> 
4432
(
3.983092904760192e-06
-3.983092935544542e-06
7.978991456253387e-06
-3.995898581759142e-06
1.192946673430718e-05
-3.950475307717273e-06
1.585185536126953e-05
-3.922388656182626e-06
1.972613015801353e-05
-3.874274825171146e-06
2.351663158806064e-05
-3.790501457339199e-06
2.719185845097932e-05
-3.675226888779325e-06
3.071885267137302e-05
-3.526994244502121e-06
3.405786674033914e-05
-3.339014090885135e-06
3.716047279949032e-05
-3.102606078278516e-06
3.996804199744822e-05
-2.807569213548292e-06
4.240954158712915e-05
-2.441499600858523e-06
4.439843503634034e-05
-1.988893454780603e-06
4.582807081674327e-05
-1.429635778240912e-06
4.656521779861783e-05
-7.371469679862873e-07
4.64562939298984e-05
1.08923897441083e-07
4.527801040501487e-05
1.178283584219454e-06
4.276881301813169e-05
2.509197528539651e-06
3.859257465364167e-05
4.176238722216959e-06
3.238061938830939e-05
6.211956224906845e-06
2.385779320310225e-05
8.522829141750945e-06
1.279889910697307e-05
1.105890614881507e-05
1.279891017685683e-05
4.031189275023197e-06
-8.014282218176396e-06
8.053748003179199e-06
-8.018457315487123e-06
1.205254931329082e-05
-7.949276621638621e-06
1.602108320757861e-05
-7.890922552294919e-06
1.993480979908015e-05
-7.788001416215383e-06
2.376524297353041e-05
-7.620934628999592e-06
2.748295201212209e-05
-7.392935922327056e-06
3.105503216136585e-05
-7.099074386663425e-06
3.444225920384128e-05
-6.726241124612369e-06
3.759720982311927e-05
-6.257556687696497e-06
4.046260132162107e-05
-5.672960701812619e-06
4.296930564048064e-05
-4.948203909717899e-06
4.503375962277732e-05
-4.053347426874191e-06
4.65545292870174e-05
-2.950405428992635e-06
4.740799982116302e-05
-1.590617477498767e-06
4.740089967817483e-05
1.160240902012693e-07
4.636174104747966e-05
2.217442315488559e-06
4.398480069723935e-05
4.886138083516898e-06
3.992254006748233e-05
8.238499790304747e-06
3.374901881325232e-05
1.238547852102133e-05
2.504531842825907e-05
1.722653255709131e-05
1.353909973625422e-05
2.256513721145693e-05
2.633802075500899e-05
4.023161401833384e-06
-1.203744346939091e-05
8.048260413957662e-06
-1.204355616933449e-05
1.206319879109795e-05
-1.196421483260153e-05
1.604537322196044e-05
-1.187309680898088e-05
1.996945377735078e-05
-1.171208178990787e-05
2.381131871926773e-05
-1.146279938277158e-05
2.754344100759749e-05
-1.112505801781588e-05
3.113341997732884e-05
-1.068905316163077e-05
3.454262644261066e-05
-1.01354473974684e-05
3.772447449750955e-05
-9.439404558628719e-06
4.062267928752268e-05
-8.571165324323589e-06
4.316938206338503e-05
-7.494906543174873e-06
4.528270334920024e-05
-6.166668601561916e-06
4.686263214740379e-05
-4.530334146697516e-06
4.778101167070646e-05
-2.508996938798713e-06
4.7909357471144e-05
-1.232161965307981e-08
4.700751770100802e-05
3.119282271895127e-06
4.48305889842018e-05
7.063067123895434e-06
4.101305038462513e-05
1.205603895661723e-05
3.508021505982595e-05
1.83183149899122e-05
2.646224485335752e-05
2.584450585944396e-05
1.464355711738215e-05
3.4383837813901e-05
4.098157395070447e-05
4.02816521348614e-06
-1.606560802996175e-05
8.063417914018489e-06
-1.607880819323361e-05
1.209691108961381e-05
-1.599770730620695e-05
1.60961316678949e-05
-1.587231666159257e-05
2.003657956215524e-05
-1.565252893738384e-05
2.389709163143159e-05
-1.532331068783026e-05
2.765192271378642e-05
-1.487988832437816e-05
3.126971096867601e-05
-1.430684063867895e-05
3.471283336308877e-05
-1.357856902692032e-05
3.793586715171922e-05
-1.266243761709402e-05
4.088390131381796e-05
-1.151919882040263e-05
4.349087740200123e-05
-1.010188206293521e-05
4.567758819283653e-05
-8.353378951599253e-06
4.734869720133208e-05
-6.201442858773271e-06
4.838981299300756e-05
-3.550112568659911e-06
4.864472890166354e-05
-2.672373633429409e-07
4.793617276222594e-05
3.827838788491126e-06
4.600159815142149e-05
8.997642342350399e-06
4.2486184553004e-05
1.557145344043868e-05
3.687359518959672e-05
2.393090577693901e-05
2.84276659527391e-05
3.429043840426178e-05
1.625712055516929e-05
4.655439689877944e-05
5.723867447449766e-05
4.041014628453059e-06
-2.010662085696679e-05
8.09287865822253e-06
-2.013067036450666e-05
1.214885830448536e-05
-2.005368503385844e-05
1.616991495315981e-05
-1.989337133735124e-05
2.013354058244735e-05
-1.961615254516657e-05
2.402089931799809e-05
-1.921066736078812e-05
2.780795931609982e-05
-1.866694623160126e-05
3.146478856359233e-05
-1.796366778919729e-05
3.495514554828576e-05
-1.706892394496411e-05
3.823507981521674e-05
-1.594236990286973e-05
4.125136266660527e-05
-1.453547985181916e-05
4.394009628600156e-05
-1.27906141129378e-05
4.622520319632476e-05
-1.063848463135612e-05
4.801604441433139e-05
-7.992283256530968e-06
4.920288041155732e-05
-4.736948183641966e-06
4.964951560496422e-05
-7.138722916982953e-07
4.918242450849307e-05
4.294930633721475e-06
4.756314272840915e-05
1.061692538366214e-05
4.444701021159045e-05
1.868758765163012e-05
3.92818288984933e-05
2.909608931094376e-05
3.113897992742969e-05
4.243329135539982e-05
1.860002014154919e-05
5.90933718131034e-05
7.583867285493997e-05
4.061562636094854e-06
-2.416817961617243e-05
8.136014681527512e-06
-2.420511842379371e-05
1.221826080739004e-05
-2.413592706169181e-05
1.6266236458808e-05
-2.394134278863727e-05
2.025989613455749e-05
-2.360980792625019e-05
2.418250243720688e-05
-2.313326928449905e-05
2.80118157512218e-05
-2.249625510325106e-05
3.171966986562139e-05
-2.167151743849069e-05
3.52715703683766e-05
-2.062082003123543e-05
3.862536993388783e-05
-1.929616521256828e-05
4.172982513034866e-05
-1.763993110988396e-05
4.45234827421364e-05
-1.558426829287346e-05
4.69337216082806e-05
-1.30487207667934e-05
4.887537868730717e-05
-9.933938493470952e-06
5.024855806214568e-05
-6.110126761685314e-06
5.09259356328325e-05
-1.391249570811265e-06
5.075567444926624e-05
4.465193078184914e-06
4.952631334209987e-05
1.184628899282896e-05
4.692465043700527e-05
2.128925402947556e-05
4.239156695791386e-05
3.362917699197416e-05
3.480938542312157e-05
5.001547870843829e-05
2.20639640865821e-05
7.183881104804288e-05
9.790261318839593e-05
4.093133566707203e-06
-2.826130622459644e-05
8.195694053512657e-06
-2.830767178221862e-05
1.230735933650647e-05
-2.8247585044848e-05
1.638673732977454e-05
-2.80207133166233e-05
2.041637697407325e-05
-2.763943994331341e-05
2.438174582215031e-05
-2.709863035085576e-05
2.826261408178013e-05
-2.637711545303565e-05
3.203289612008242e-05
-2.54417915021807e-05
3.566019431143256e-05
-2.424811030426187e-05
3.910450433098341e-05
-2.274046756665106e-05
4.231686834569306e-05
-2.085228798900838e-05
4.523845252115414e-05
-1.850584619891607e-05
4.779993532686129e-05
-1.561019850947737e-05
4.992065056130572e-05
-1.205465022561468e-05
5.15072717019414e-05
-7.696746404419599e-06
5.245880790490614e-05
-2.342785783600966e-06
5.263559307616596e-05
4.288409437856763e-06
5.187190964057764e-05
1.260997669810129e-05
4.991806674609093e-05
2.324310357763074e-05
4.626717622470818e-05
3.728007584218576e-05
3.969148205624485e-05
5.659118302679077e-05
2.736762966196307e-05
8.416268701118074e-05
0.0001252702175809215
4.141792125982438e-06
-3.240307877155735e-05
8.273444287693632e-06
-3.243930396717164e-05
1.242029151662255e-05
-3.239441186962847e-05
1.653581048323173e-05
-3.213621144409165e-05
2.060730457565643e-05
-3.171091275746422e-05
2.462304448010447e-05
-3.111434854064268e-05
2.856495100935552e-05
-3.031899988139176e-05
3.240931817507355e-05
-2.928613632068891e-05
3.612622518361747e-05
-2.796499500252173e-05
3.967823903037793e-05
-2.629245961280413e-05
4.30192118329893e-05
-2.419324017684696e-05
4.60935889861019e-05
-2.158020477226383e-05
4.883613017723872e-05
-1.835272402970638e-05
5.117126099818411e-05
-1.438976917186135e-05
5.301086089610252e-05
-9.536339560424867e-06
5.425752163762114e-05
-3.589445976611898e-06
5.481271243747602e-05
3.733218029259864e-06
5.456778420165212e-05
1.285490757178056e-05
5.338454916444713e-05
2.442634688041639e-05
5.091884108240442e-05
3.974579995939726e-05
4.600596327324165e-05
6.150408635845603e-05
3.556270787236403e-05
9.460599014608977e-05
0.0001608329094014118
-9.554426965695542e-06
9.103248214406425e-06
-1.135189976189322e-05
1.344979541647561e-06
-1.323479486093051e-05
1.427674415268051e-06
-1.833117265282904e-05
4.636992848717734e-06
-2.250755471365119e-05
3.711533177726804e-06
-2.317947230848167e-05
2.003831381055898e-07
-1.94780591418885e-05
-4.18095415826944e-06
-1.247698188278755e-05
-7.489477286334481e-06
-3.3261966083996e-06
-9.64725467112275e-06
7.097716622244852e-06
-1.092768893832881e-05
1.782647897510335e-05
-1.123764949809376e-05
2.759246864553963e-05
-1.027775625140837e-05
3.505390615700047e-05
-7.974197208339972e-06
3.900065007326375e-05
-4.458890385318374e-06
3.868014112059598e-05
-1.897499119143735e-07
3.384581742025293e-05
4.326640895371059e-06
2.493395407614136e-05
8.406782570615923e-06
1.300631844904172e-05
1.142462624935199e-05
1.250446910540044e-05
-1.155874619427845e-05
2.021087081543847e-05
-1.327899849933737e-05
2.61278191514004e-06
-1.442452463396176e-05
2.11804896827712e-06
-1.975517074772302e-05
9.508232330226483e-06
-2.402617789752478e-05
7.517245939858922e-06
-2.448881533219454e-05
1.908248495837298e-07
-2.008206320894999e-05
-9.070485669652264e-06
-1.239968484056343e-05
-1.566639741274905e-05
-2.672843181866072e-06
-1.987738867796811e-05
8.244369122650493e-06
-2.235406908196416e-05
1.959671483020583e-05
-2.310222631380625e-05
3.006683486547198e-05
-2.126126102706494e-05
3.82407783339919e-05
-1.666157414562533e-05
4.269252205555747e-05
-9.42306100090695e-06
4.246405816995677e-05
-4.716260431264129e-07
3.729602686009979e-05
8.98706280438112e-06
2.766004110566584e-05
1.753787997970412e-05
1.463599541949418e-05
2.394593300296029e-05
2.663892592463538e-05
-1.397247418303542e-05
3.373163829860203e-05
-1.470797593734184e-05
2.895365360311782e-06
-1.402435254390115e-05
9.793107563473415e-07
-2.0125424887285e-05
1.514912594931798e-05
-2.513203284934372e-05
1.20541628823066e-05
-2.576371495214484e-05
3.468055357764826e-07
-2.076184095803112e-05
-1.457260181855732e-05
-1.260227914859176e-05
-2.435049718693173e-05
-2.768525154600481e-06
-3.024634048037691e-05
8.267474604032318e-06
-3.392541372197038e-05
1.997751380172512e-05
-3.534204027194134e-05
3.090052209106128e-05
-3.270660592063557e-05
3.956530064806867e-05
-2.584326322247574e-05
4.443634967798879e-05
-1.480762400208831e-05
4.44607559372845e-05
-1.006608960400774e-06
3.928592208381914e-05
1.365444465609127e-05
2.930980229693053e-05
2.700951204129193e-05
1.561464197936666e-05
3.713889627667678e-05
4.175263956468737e-05
-1.765550896696784e-05
5.09278568880794e-05
-1.602567580341303e-05
8.122949400697155e-07
-1.346476657597438e-05
-2.038922623602181e-06
-2.025516044077589e-05
2.147415712369521e-05
-2.615348822507636e-05
1.745799188220775e-05
-2.653419279510335e-05
2.434099562379489e-07
-2.038034084550299e-05
-2.128428714023483e-05
-1.193938020271902e-05
-3.340305217771619e-05
-2.13957854307396e-06
-4.06695476154031e-05
8.725844413908661e-06
-4.540271575298466e-05
2.074900589617781e-05
-4.79539550169142e-05
3.218075129838755e-05
-4.46957287091568e-05
4.146933611253074e-05
-3.566411584989878e-05
4.683007680585512e-05
-2.068674008384174e-05
4.704491095786352e-05
-1.733170732682884e-06
4.17182259546972e-05
1.847371945097032e-05
3.122765437917285e-05
3.699617377292059e-05
1.668678700126731e-05
5.117838294012338e-05
5.793941477329102e-05
-2.307809291312944e-05
7.318697208188905e-05
-1.786736603127367e-05
-4.884835900619309e-06
-1.137217431862638e-05
-9.036095327723047e-06
-1.912518148150815e-05
2.873301646269694e-05
-2.525835976129239e-05
2.302146280535146e-05
-2.394002383778282e-05
-1.563897140159129e-06
-1.645865706325431e-05
-2.945226919101789e-05
-8.274721550112225e-06
-4.236339265671127e-05
6.708995357076049e-07
-5.038441378358666e-05
1.055825121473212e-05
-5.603515880667438e-05
2.251854669561891e-05
-6.062864685033057e-05
3.425205972690107e-05
-5.707997400063777e-05
4.418651740953193e-05
-4.618186855977248e-05
5.011743728537408e-05
-2.715505437124989e-05
5.052854823329089e-05
-2.661221923427902e-06
4.494414085613912e-05
2.354969865958715e-05
3.372797171931118e-05
4.770902240569714e-05
1.805863961331862e-05
6.634742486849151e-05
7.549928455339375e-05
-2.518165872904173e-05
9.8782391504399e-05
-1.303281431594035e-05
-1.75675286345873e-05
-8.174990017832534e-06
-1.468396272388291e-05
-1.674366527212909e-05
3.705240731224938e-05
-1.806559658479037e-05
2.36597948313233e-05
-1.20532602918723e-05
-8.094902972651154e-06
-5.277524611433459e-06
-3.709408066883605e-05
9.627290350979955e-07
-4.953968699810009e-05
7.863852252038434e-06
-5.821217009821265e-05
1.528316065617022e-05
-6.431417484487464e-05
2.632814446559254e-05
-7.253909772810339e-05
3.768889861663435e-05
-6.925006661004475e-05
4.802502178469167e-05
-5.722273374974739e-05
5.448205694185958e-05
-3.420848652330532e-05
5.505662810066649e-05
-3.772340065429274e-06
4.911334300144118e-05
2.897869049337436e-05
3.694999955429678e-05
5.936882102901358e-05
1.982576443028347e-05
8.297265126481434e-05
9.482786541065306e-05
-1.24010218557628e-05
0.0001041684004611221
3.605559724858486e-06
-3.312113665877316e-05
-2.191050065083871e-06
-1.048522554908372e-05
-5.592162559064289e-06
3.600328895282556e-05
1.279342788609081e-06
1.559828638161929e-05
1.301732821489939e-05
-2.050016981630024e-05
1.703995689895164e-05
-4.179864074035832e-05
1.944664977984623e-05
-5.283160263967471e-05
2.249094961740742e-05
-6.226144454305495e-05
2.49273123081029e-05
-6.760939350284054e-05
3.366719423181695e-05
-8.218354976154238e-05
4.3324732959102e-05
-7.984649619572601e-05
5.343899977688217e-05
-6.823190884777422e-05
6.019601120788297e-05
-4.170196714956788e-05
6.080003100329202e-05
-4.973159287856276e-06
5.436599255537015e-05
3.487517549380007e-05
4.100746345049786e-05
7.22194506726421e-05
2.206339535080069e-05
0.0001014187357860016
0.0001163960181924827
8.208590054883735e-05
2.220805269667094e-05
4.604227837077921e-05
-5.8986714725172e-07
3.959160992511018e-05
-3.153427375278886e-06
3.916062747348291e-05
3.287819819730727e-05
4.283633856995576e-05
1.06555074102573e-05
4.905598011059069e-05
-2.739082696847262e-05
5.307710528467244e-05
-4.614569154267494e-05
5.111409958037484e-05
-5.153087077875286e-05
4.81859437791557e-05
-6.064044448595801e-05
4.142217215031087e-05
-6.252230628963368e-05
4.634044775129801e-05
-8.850864556250406e-05
5.21365122289144e-05
-8.710009196195552e-05
6.103395843556413e-05
-7.859563481150402e-05
6.771704869718133e-05
-4.948928651345906e-05
6.798918611101412e-05
-5.984529015461009e-06
6.088117116292008e-05
4.138006193971154e-05
4.603739124264492e-05
8.653660318241268e-05
2.485422122563138e-05
0.0001221024480339372
0.0001407570779702429
8.879169482608346e-06
-4.128219818727347e-05
1.781915299591405e-05
-4.13792365659615e-05
2.669790306348043e-05
-4.127310996140947e-05
3.553559260926807e-05
-4.09738478829678e-05
4.430465774268997e-05
-4.047992358845471e-05
5.297535224252985e-05
-3.978498750549553e-05
6.15153168927746e-05
-3.88589078890418e-05
6.988110044268521e-05
-3.765186252358989e-05
7.801533245675337e-05
-3.609916979209555e-05
8.584497924633802e-05
-3.412205063840248e-05
9.327971171676153e-05
-3.162792015393441e-05
0.0001002120258823999
-2.851247189651402e-05
0.0001065205020560554
-2.466116033441206e-05
0.0001120771228365791
-1.994635823637425e-05
0.0001167553007641759
-1.421449657996361e-05
0.0001204258277133188
-7.259970377444566e-06
0.0001232159943332148
9.430503309041572e-07
0.0001252227966750674
1.084812461432431e-05
0.0001269460861135336
2.270309940115546e-05
0.0001294191629232574
3.727278786769731e-05
0.0001357428093701739
5.518052800579824e-05
0.0001542058814293361
7.614307179626967e-05
9.88732903021779e-05
0.0002161660426424639
9.05725970220214e-06
-5.033938558245689e-05
1.813012399921965e-05
-5.045202787153425e-05
2.718158060142396e-05
-5.032449200573473e-05
3.620028870633482e-05
-4.999247989491719e-05
4.51788653548269e-05
-4.945842240055911e-05
5.410286993894177e-05
-4.870891245674248e-05
6.294984256931186e-05
-4.770579949726305e-05
7.168641026788343e-05
-4.638834871951377e-05
8.026542312214042e-05
-4.467810224577629e-05
8.862319642432224e-05
-4.247974684603917e-05
9.66775814910996e-05
-3.968223400567746e-05
0.0001043281076159886
-3.616293571566424e-05
0.0001114633294084202
-3.179632954328541e-05
0.0001179877151536106
-2.64706981337362e-05
0.0001238679312006498
-2.009467347160737e-05
0.0001291325604981096
-1.25245780434294e-05
0.0001333706211092113
-3.295030003784382e-06
0.0001370739087811107
7.14481905898521e-06
0.0001411162076914704
1.866081504703526e-05
0.0001471086931283849
3.128035793288869e-05
0.0001577794641514653
4.450985363094779e-05
0.0001753312333102081
5.859145830560536e-05
7.377880456651516e-05
0.0002004259477247992
9.269048785015374e-06
-5.960835044408661e-05
1.84742282294707e-05
-5.965712204724498e-05
2.767758325231943e-05
-5.952776000912542e-05
3.686449202443724e-05
-5.917930146939832e-05
4.603629850684312e-05
-5.863014136330848e-05
5.51911673153261e-05
-5.786369401898078e-05
6.431657833144678e-05
-5.683112459630038e-05
7.338866359324972e-05
-5.546035071090318e-05
8.237096603225415e-05
-5.366032539418696e-05
9.121011194238137e-05
-5.131881819299723e-05
9.983181593849083e-05
-4.830386858041801e-05
0.0001081341044595701
-4.446516193952576e-05
0.0001159793499786363
-3.964151767550137e-05
0.0001231917742238883
-3.368306059148094e-05
0.0001295693341386812
-2.647216706388042e-05
0.0001350441323166903
-1.799931145209205e-05
0.0001403297340032328
-8.580629962859925e-06
0.0001462587419072748
1.215731571534823e-06
0.0001510855391304742
1.383396342417114e-05
0.0001572275107840712
2.513839171681324e-05
0.0001666082619512726
3.512917605366653e-05
0.0001809801034695725
4.421975547699255e-05
5.046383294186314e-05
0.0002042953389035395
9.45179146939629e-06
-6.905373530558654e-05
1.868461351813486e-05
-6.888333551311253e-05
2.794516479089103e-05
-6.87798477400074e-05
3.719573000140043e-05
-6.841770487086252e-05
4.644103715213618e-05
-6.785720819210708e-05
5.568883608984175e-05
-6.708398087618383e-05
6.493707341882605e-05
-6.603851585674696e-05
7.417538748273141e-05
-6.463983905464059e-05
8.338652905872076e-05
-6.278993814874182e-05
9.254353021848981e-05
-6.0367489478108e-05
0.0001016043411019027
-5.722698884360937e-05
0.0001105008441136857
-5.319453615552114e-05
0.0001191222108770909
-4.806937793703641e-05
0.0001273034418655263
-4.165126837973908e-05
0.0001348639451533525
-3.380905294489596e-05
0.0001415721996192756
-2.449129345971851e-05
0.0001476102695671983
-1.439751937824666e-05
0.0001519281368953912
-2.913283659800243e-06
0.0001561672684656133
9.733684496761365e-06
0.0001611824357252533
2.020449680607323e-05
0.0001684533607605906
2.786973724853585e-05
0.0001794106333422966
3.326259968824237e-05
3.493284109624343e-05
0.0001949419060240339
9.658339382125465e-06
-7.935787638343236e-05
1.864825412119146e-05
-7.854023434372389e-05
2.790845932605516e-05
-7.878508955211751e-05
3.713842086187025e-05
-7.850139060400587e-05
4.638981514100762e-05
-7.81169874245547e-05
5.569811787162421e-05
-7.757136297409134e-05
6.508431863624555e-05
-7.68141578910489e-05
7.456615867960414e-05
-7.572650607628518e-05
8.415379102034296e-05
-7.417366605457756e-05
9.385672985321219e-05
-7.200108236951716e-05
0.0001036817679604159
-6.902593038307604e-05
0.0001136193122855522
-6.500344820781255e-05
0.0001235275099581232
-5.949284653519407e-05
0.0001321314389792645
-5.096089585369721e-05
0.0001387350172906924
-3.924621286375389e-05
0.0001415171747450512
-2.636496654395989e-05
0.000143953998452382
-1.647057371792423e-05
0.0001480111026149825
-6.51923375509961e-06
0.0001531022203350267
5.413409116429547e-06
0.0001588865431166284
1.563919430566381e-05
0.0001650704408671896
2.32105638329743e-05
0.0001739523700588813
2.594021840078521e-05
2.638271415230221e-05
0.0001830110517486888
1.026797781616341e-05
-8.714913631308751e-05
2.059075929533758e-05
-8.630917752847239e-05
3.105253358559936e-05
-8.668331676069696e-05
4.134932736755389e-05
-8.631278103129888e-05
5.185004770599076e-05
-8.624539688779613e-05
6.289170195253855e-05
-8.632699735275374e-05
7.424070146496502e-05
-8.608083282088241e-05
8.581304103727847e-05
-8.547634071730454e-05
9.736882750586603e-05
-8.422228992254734e-05
0.0001084382798612844
-8.191272926178177e-05
0.0001186142332369823
-7.841697176045656e-05
0.0001269542559337328
-7.296442529761859e-05
0.0001322632886834271
-6.474098919167298e-05
0.0001347013317045875
-5.337233722947266e-05
0.0001349671645323579
-3.906676723932728e-05
0.0001341102918750635
-2.431034655978373e-05
0.0001332145149715881
-1.444234260695986e-05
0.0001367814712468896
-9.524680345302679e-06
0.0001484651890529777
-6.028639324751482e-06
0.0001664187629939235
-2.985944093071262e-06
0.0001869258042160199
2.379042714726571e-06
0.0001908784538307795
1.616617183063256e-05
2.072198305343469e-05
0.0001905824122161325
7.488591726255436e-06
-9.475181394995796e-05
1.692763891025269e-05
-9.591511660416451e-05
2.687166955501651e-05
-9.684831016897108e-05
3.76181037940652e-05
-9.725508421157992e-05
4.92008666612636e-05
-9.807375348763263e-05
6.154613464432101e-05
-9.902168026105431e-05
7.456498673257659e-05
-9.953977580198623e-05
8.776914038938983e-05
-9.922719698106047e-05
0.0001005031249377483
-9.758136334564441e-05
0.0001123445929895386
-9.442105278447557e-05
0.000122930492134541
-8.966010164683188e-05
0.0001316284274963339
-8.232859195837022e-05
0.0001374986536477019
-7.124536016245968e-05
0.0001406576214151255
-5.68108352859264e-05
0.0001431698325153612
-4.117661336396398e-05
0.000147800269601176
-2.804455299944164e-05
0.0001551514641182805
-2.079823454175522e-05
0.0001651877594040697
-1.866459972328042e-05
0.0001784606938015812
-1.850822993339589e-05
0.0001959797750478844
-1.987438730204213e-05
0.0002205207029150638
-2.149506642757465e-05
0.0002565143731911758
-1.932099906451416e-05
-1.919430739006763e-05
0.0002981293957461901
6.700233279853743e-06
-0.0001018100877170163
1.576959936058732e-05
-0.0001053577527838578
2.535392757430648e-05
-0.0001068551786840859
3.583107793807213e-05
-0.0001081988751879541
4.721231641094574e-05
-0.0001099542103066661
5.942077784656654e-05
-0.0001117727006464414
7.216699327670115e-05
-0.0001128611229939006
8.488474909500599e-05
-0.0001125309676041748
9.704863274973494e-05
-0.0001103134573131446
0.0001082777274559093
-0.0001061765988144554
0.0001186460418128512
-0.0001004902650760394
0.0001280620142132254
-9.214452579760263e-05
0.0001361593559835131
-7.968247724978776e-05
0.0001435441587046533
-6.442383941610694e-05
0.0001521453614084763
-4.971013008816866e-05
0.0001631035415219519
-3.853474013762382e-05
0.0001763486411323427
-3.328486806421958e-05
0.0001915165282430392
-3.290644507841887e-05
0.0002085684949836323
-3.45513061763218e-05
0.0002268091663785422
-3.717938132666381e-05
0.0002472898126071539
-4.125223712245887e-05
0.0002740760756247061
-4.551946164870813e-05
-5.113000894823498e-05
0.0003063022759312793
6.476875763990763e-06
-0.000108425020819873
1.469299368781745e-05
-0.0001137785706029828
2.348007589329764e-05
-0.0001158365059555541
3.304831657250747e-05
-0.0001179542162107048
4.344085066394237e-05
-0.0001205309249231028
5.448009433124739e-05
-0.0001229906178148771
6.585424016936782e-05
-0.0001244048724616105
7.708896540530308e-05
-0.0001239135201676454
8.774711700456279e-05
-0.0001210819800132955
9.749177855312085e-05
-0.0001159871427466005
0.0001066039005768172
-0.0001096146331610848
0.000115054001076615
-0.0001005728777037794
0.0001230033874212453
-8.760040100304232e-05
0.000131540342566222
-7.293511630702633e-05
0.000141863149423465
-5.99809229894588e-05
0.0001537814631883714
-5.026414327053443e-05
0.0001670088257358426
-4.610913516767739e-05
0.0001807082933999751
-4.601164177284584e-05
0.0001953718395607347
-4.850807742799895e-05
0.0002118875576596176
-5.30484764491947e-05
0.0002320084388873195
-6.087833185567277e-05
0.0002574953873314297
-7.06449533593766e-05
-8.223980634707757e-05
0.0002887040082867076
6.08144793793252e-06
-0.0001143985764570434
1.320419716438474e-05
-0.0001207937179242443
2.076162118322832e-05
-0.000123279989615788
2.894532894374965e-05
-0.0001260109580402595
3.776634031915807e-05
-0.0001292078147993818
4.701919780479397e-05
-0.0001320777485602653
5.637085761700313e-05
-0.0001335651729112709
6.545722575628441e-05
-0.0001327803373667537
7.401426253197409e-05
-0.0001293859779891176
8.184486821650626e-05
-0.0001235314411463834
8.892613531722212e-05
-0.0001163529519256278
9.500175208301411e-05
-0.0001062936518852605
0.0001004547798203879
-9.270039557144312e-05
0.0001072504695934933
-7.939233217810956e-05
0.0001165281834135593
-6.887835273359541e-05
0.0001274146526002708
-6.063674585106315e-05
0.0001392987669827853
-5.730457361543265e-05
0.0001519820105050423
-5.791353918686047e-05
0.0001664300403388115
-6.220351377431529e-05
0.0001843030597597379
-7.034714797157908e-05
0.0002060965478406293
-8.224185956136072e-05
0.0002323231821734382
-9.653652855096874e-05
-0.0001124177550927186
0.000262751383327192
5.341453785417998e-06
-0.0001194376639278218
1.117026087606753e-05
-0.000126306709619591
1.725395534499793e-05
-0.0001290305612712412
2.376324583348587e-05
-0.0001321704719245362
3.065124659828218e-05
-0.0001357278328419741
3.767508539821436e-05
-0.0001387158060752535
4.452370627340906e-05
-0.0001400117293113696
5.093782512207444e-05
-0.0001387731808289947
5.684147238028325e-05
-0.0001348400975761264
6.222452346162793e-05
-0.0001284326253084595
6.675318121644759e-05
-0.0001203563227995602
7.01276722149343e-05
-0.0001091469258814919
7.349387724445284e-05
-9.551292978454611e-05
7.900365354253468e-05
-8.424914564886463e-05
8.681500811614192e-05
-7.590340816009705e-05
9.643908081929756e-05
-6.937005324663882e-05
0.0001069268304028269
-6.689455941617861e-05
0.0001198875299627842
-7.011195113081174e-05
0.0001362839689879124
-7.807472769151803e-05
0.0001567221893203752
-9.044682166331637e-05
0.0001806889881559801
-0.0001059499312082068
0.0002079697444483401
-0.0001235653804594598
-0.0001423884983425548
0.0002382149660128234
4.310747364929677e-06
-0.0001233266096290021
8.71566870289797e-06
-0.0001302741096798672
1.318267093357304e-05
-0.0001330507545990816
1.784221296536768e-05
-0.0001363736116683827
2.256789602562026e-05
-0.0001399878254697559
2.709551149093908e-05
-0.0001427701599150643
3.115521971266581e-05
-0.0001435895436896881
3.45968328737419e-05
-0.0001417159413439942
3.745050985917349e-05
-0.000137165560984461
3.971030919202438e-05
-0.0001301324157232522
4.123108849949555e-05
-0.0001212826339170451
4.252387735413127e-05
-0.0001098251627490635
4.564527970418204e-05
-9.792233862348506e-05
5.07736464890613e-05
-8.853503646669679e-05
5.678306283072999e-05
-8.108297259304074e-05
6.49700966069559e-05
-7.680694487457184e-05
7.677656200478953e-05
-7.817188580936925e-05
9.269489247510073e-05
-8.573623312793133e-05
0.0001122531514124448
-9.743468501221364e-05
0.0001344114485315561
-0.0001123837770984086
0.0001586799603048615
-0.0001299304078994015
0.0001849617457998026
-0.0001495070378407928
-0.0001703739222250198
0.0002133405076962022
3.093898889247433e-06
-0.0001259433129579333
6.006908600324345e-06
-0.0001327038351134356
8.809946534633463e-06
-0.0001353664793040113
1.155610333753954e-05
-0.0001386293914700292
1.404998490224342e-05
-0.0001419889168568511
1.603800325690878e-05
-0.0001442627743080522
1.732346514811307e-05
-0.0001443720336860811
1.788421789374734e-05
-0.0001417562305948065
1.781827025646571e-05
-0.0001365548581744186
1.72302352437127e-05
-0.0001289783260978872
1.642877259827918e-05
-0.0001198955740522243
1.666362494972382e-05
-0.000109448693187416
1.930012513976595e-05
-9.988769825622647e-05
2.389315893230739e-05
-9.248748232925925e-05
3.046947453232308e-05
-8.724129968695125e-05
4.122647532858915e-05
-8.735833238975972e-05
5.672680663519662e-05
-9.353416868372578e-05
7.480358090862841e-05
-0.000103601315347943
9.453948332352233e-05
-0.0001168490788085884
0.0001154748814298229
-0.000132916574283666
0.0001375551821417688
-0.000151565598538806
0.0001609922791021589
-0.000172488546508359
-0.0001950289666709339
0.0001861239522893378
1.804212705155253e-06
-0.0001272543624844713
3.237411388394422e-06
-0.0001336424492977601
4.425065747536738e-06
-0.0001360593696104668
5.318724210780793e-06
-0.0001390281220566646
5.701651811785224e-06
-0.0001418766149419159
5.369097415320621e-06
-0.0001434325546963889
4.250103763527244e-06
-0.000142747758223907
2.473153248816042e-06
-0.0001394626882396522
2.33502385031718e-07
-0.000133791992264699
-1.957689285060452e-06
-0.0001262693535336182
-3.443085371517317e-06
-0.0001179069397287471
-3.002678071481791e-06
-0.0001094117828456718
5.935453125151112e-08
-0.0001025552815713157
6.047884453734848e-06
-9.82310771919887e-05
1.564511155696228e-05
-9.673238707292839e-05
2.906020662229796e-05
-0.0001005390846546985
4.467808646968069e-05
-0.0001087657834462657
6.13012368752107e-05
-0.0001197601715078584
7.861494622779337e-05
-0.0001336718374982775
9.659330919731187e-05
-0.0001504010371997818
0.0001153335979535162
-0.0001698163117636799
0.000135075555119793
-0.0001917498064247926
-0.0002156584711156877
0.0001561919343051326
5.501440530481391e-07