/*--------------------------------*- C++ -*----------------------------------*\
| =========                 |                                                 |
| \\      /  F ield         | OpenFOAM: The Open Source CFD Toolbox           |
|  \\    /   O peration     | Version:  2206                                  |
|   \\  /    A nd           | Website:  www.openfoam.com                      |
|    \\/     M anipulation  |                                                 |
\*---------------------------------------------------------------------------*/
FoamFile
{
    version     2.0;
    format      ascii;
    arch        "LSB;label=32;scalar=64";
    class       volScalarField;
    location    "0.35";
    object      rho;
}
// * * * * * * * * * * * * * * * * * * * * * * * * * * * * * * * * * * * * * //

dimensions      [1 -3 0 0 0 0 0];

internalField   nonuniform List<scalar> 
2268
(
1001.360174793317
1001.360174992608
1001.360175069489
1001.360175169791
1001.360175283468
1001.360175393113
1001.360175490682
1001.36017557049
1001.360175624994
1001.360175644083
1001.360175614996
1001.36017552168
1001.360175339554
1001.3601750162
1001.360174423325
1001.360173267091
1001.360171043769
1001.360166009369
1001.360153637952
1001.360120946898
1001.360023119085
1001.359645668933
1001.262689721239
1001.360183627038
1001.360183787201
1001.360183843702
1001.360183914234
1001.360183993327
1001.360184068146
1001.360184131407
1001.360184178794
1001.360184207408
1001.360184216145
1001.360184205485
1001.360184174312
1001.360184102032
1001.360183899955
1001.360183320366
1001.360181805066
1001.360178297548
1001.360170612782
1001.360153723618
1001.360114574753
1001.360010417733
1001.359637590688
1001.262675742805
1001.360183233749
1001.360182982924
1001.360182648415
1001.360182237305
1001.360181788062
1001.360181315903
1001.360180825743
1001.360180334488
1001.360179883769
1001.360179548424
1001.36017944018
1001.360179698649
1001.360180434196
1001.360181598327
1001.360182786696
1001.360182989535
1001.360179475083
1001.360169619973
1001.360148038231
1001.360102046173
1001.359991869931
1001.359627113114
1001.30831437807
1001.360151342423
1001.360149614653
1001.360147661867
1001.360145393745
1001.360142937483
1001.360140354531
1001.360137680186
1001.360134999187
1001.360132499117
1001.360130512194
1001.360129541737
1001.360130248101
1001.360133299968
1001.360139065909
1001.360147215679
1001.360156182635
1001.360158964303
1001.360151952122
1001.36012963929
1001.360080149665
1001.359967481505
1001.359616713052
1001.357325471771
1001.360039890974
1001.360034296819
1001.360027825478
1001.360020543422
1001.360012651207
1001.360004234774
1001.359995369353
1001.359986276637
1001.359977474631
1001.359969915329
1001.359965083826
1001.359964992131
1001.359971861254
1001.359987487256
1001.360012616428
1001.360046009826
1001.360072387939
1001.360084124611
1001.360075371215
1001.360034908738
1001.359930610577
1001.359604615117
1001.357493965218
1001.359766065312
1001.359752319328
1001.359736031358
1001.359717935463
1001.359698156227
1001.359676698594
1001.359653639918
1001.359629395574
1001.359605072832
1001.359582822592
1001.359566098605
1001.359559674379
1001.359569055658
1001.359599260791
1001.359654238214
1001.359736387187
1001.359821187794
1001.359887811956
1001.359928294093
1001.359929726489
1001.359861532761
1001.359582608695
1001.357660912789
1001.359213027933
1001.359184897101
1001.359151025987
1001.359113221705
1001.359071309421
1001.359024996294
1001.358974227186
1001.358919605528
1001.358863139288
1001.358808984632
1001.358763963538
1001.358737563066
1001.358740951708
1001.358784431504
1001.358877374651
1001.359032084452
1001.359227303194
1001.359411179179
1001.35957020124
1001.359683251076
1001.359712918604
1001.359528803438
1001.357845030632
1001.358244994052
1001.358195053545
1001.358134271985
1001.358064976214
1001.357986764611
1001.357898708784
1001.357800379988
1001.35769249518
1001.357578369899
1001.357465266424
1001.357365183972
1001.357294622537
1001.357273075445
1001.357316873977
1001.357438777375
1001.357666874308
1001.358024223543
1001.35840458697
1001.358788343924
1001.359135689666
1001.359383150082
1001.359391606531
1001.358027103309
0.9613631061595076
0.96136525517802
0.9613690094177105
0.9613743426543307
0.9613817393262153
0.9613927835804096
0.9614096556155125
0.9614254612887733
0.9614375587631755
0.9614478179150867
0.9614581169673896
0.9614691571133904
0.9614803324727943
0.9614906632997076
0.9614995130871881
0.9615066464082371
0.9615120431520315
0.9615157327899269
0.9615176657782756
0.9613625001629958
0.961364933813477
0.9613685824716556
0.9613749442262097
0.9613897404025339
0.9614381413020998
0.9615386370452518
0.9615904198958451
0.9615831953880605
0.9615463564881979
0.9615084344385945
0.961488220171935
0.9614856758856332
0.9614918622933936
0.9614998377943248
0.9615067907798976
0.961512116470725
0.9615157601410522
0.9615176635554558
0.9613621159545752
0.9613774028620492
0.961369001148448
0.961386391638585
0.9614752820396836
0.9618528077049607
0.9624867587088816
0.9626765326659162
0.9625335662089027
0.9622237083840111
0.9618828652810336
0.9616435075248957
0.9615327584189372
0.9615024353153737
0.9615021136542335
0.9615075897285436
0.9615126403682844
0.9615162041754605
0.9615180771669999
0.9614095723616033
0.9617989672686118
0.9613673982754063
0.9614737088601989
0.962049380202462
0.9642872934624148
0.9668393939400048
0.9671211853527987
0.9664202755817154
0.9651634477979737
0.963661189836128
0.9624649758175136
0.961809669578836
0.9615689887491612
0.9615151483905857
0.9615104734388515
0.9615138079256987
0.9615170809237092
0.9615188972693003
0.9617520692094168
0.968396438337078
0.9612500161875388
0.9618944433607483
0.9646460839344396
0.9743983405459768
0.9806440827479687
0.979880646108657
0.9775889232038468
0.9741289645996403
0.9696368237082316
0.9655867992341099
0.9630081433111116
0.9618910692190659
0.9615811134410743
0.9615227501505557
0.9615165829419088
0.9615184618856208
0.961520106611042
0.9733546186711123
1.014141479410262
0.9616699594693855
0.9640427486142761
0.9718204492421796
1.004894678723911
1.01273227607853
1.007982954091812
1.002068009487323
0.994598528196545
0.9846415886384415
0.9745492678259999
0.9670099114626243
0.9631264360499087
0.9618610309818943
0.9615756856000097
0.9615255095434473
0.9615207686529087
0.9615216968131868
0.9483969176936975
1.13208555727913
0.9781389216738791
0.9492854344050176
0.9892315545682848
1.06537455318922
1.070132780682002
1.059476692568282
1.046294788745897
1.031526068078458
1.013847163291294
0.9945780666596713
0.9776147067946526
0.9669761426440099
0.9628530606022963
0.9617797232419726
0.9615584394577374
0.9615258875004947
0.9615237489022797
1.078895023752438
145.5581927722992
105.0293360372998
1.206728687696618
1.119771233078597
1.139695811807759
1.148087079348428
1.136386981492624
1.116715231839058
1.088042205548037
1.059221785271167
1.030167261777305
1.00036022267836
0.9769609883254384
0.9658493194045221
0.9624780145310884
0.9616786753120112
0.9615409352987078
0.9615264578820618
1001.356732577683
1001.356653277292
1001.356556549994
1001.356441636791
1001.356309601177
1001.356158258453
1001.355986598534
1001.355795429661
1001.355590111366
1001.35538265709
1001.355192461908
1001.355045327516
1001.354971447617
1001.354989575478
1001.355098102086
1001.355316448594
1001.355762132351
1001.356215737321
1001.356730508075
1001.35731620389
1001.357933007605
1001.358444715134
1001.322994287128
1001.352694233083
1001.352558006507
1001.352371282786
1001.352142636206
1001.351875084805
1001.35156139979
1001.351201967656
1001.35079881705
1001.350364618554
1001.349926184424
1001.349522670494
1001.349203343935
1001.349028104181
1001.349016016206
1001.349095372897
1001.349194626053
1001.349435730315
1001.350164831217
1001.351179896559
1001.35246208761
1001.353904386025
1001.355296087226
1001.315456872142
1001.346518531282
1001.346332890335
1001.346016639887
1001.345629419356
1001.345174183051
1001.344631280705
1001.344019040304
1001.343341063159
1001.342623569271
1001.341917791097
1001.341284071975
1001.340798572901
1001.340576477191
1001.340647959748
1001.340814013645
1001.340712069327
1001.340140543191
1001.340019197777
1001.340601452783
1001.342128014205
1001.344408442158
1001.347039543068
1001.349211191253
983.853492870163
983.4876992222311
980.3392631526489
974.3452318529065
964.9261602384485
951.0909689153542
931.7959323754139
906.2525690861646
874.2031566431981
836.1545699866012
793.6271790881955
749.3145407075471
707.0692329536107
671.8224650003095
645.5752515260203
640.6511113164415
666.5739912369552
715.1625167894965
792.8009749285956
884.0625116126353
990.6354796243754
1001.329571397177
1001.333745260638
373.2348566391083
371.9331170856185
356.9346985075121
332.1020800062076
299.8860862021987
261.9635550866021
220.4860330748887
177.8947610101469
136.6218824688206
98.7902669231764
66.0542287298142
39.46696100726987
19.42329752321793
5.516727324388288
1.208489561372804
1.208636458467855
3.479202625578699
18.70647026167251
50.81605120123768
106.8262032976055
193.2568552343873
326.5810641638368
488.7774775720187
1.178282778037643
1.177269876875909
1.174658700117904
1.170663930371688
1.164991377479717
1.158509992067411
1.15038893570582
1.141519205614855
1.132538920710218
1.124097151632753
1.116779700871815
1.111646308683959
1.111250030519786
1.118192486437272
1.132333198041318
1.147158302822408
1.146574633910674
1.129714767606682
1.11156807182525
1.098455406775618
1.099359358715787
1.10186215747703
5.704393156015118
1.082296406386036
1.077825315707807
1.073641204301317
1.069414116143843
1.063299929551637
1.056026366739795
1.048466947154326
1.041169731561744
1.034958021974475
1.030249366386839
1.027528698686159
1.027318611793608
1.031832781076065
1.043997611560569
1.062262218181761
1.078294033412266
1.08508612063606
1.08311498610275
1.076428284630968
1.068240569648829
1.729969064437963
1.8359635155353
1.670254439692655
1.017758824344613
1.013383653809822
1.009656102533431
1.005757580471323
1.001191906124125
0.9962147996869949
0.9915711275015161
0.9877993628749353
0.985289317155348
0.9841794651803175
0.9846600455897836
0.9902453105838687
0.9948125539163942
1.000097017017919
1.011721838916417
1.024685769426304
1.034610710205126
1.039339334293155
1.039034754675043
1.033431857749878
1.022962215227119
1.01346166498414
1.005315419797607
0.9828968959555764
0.9793111819654524
0.977146541424201
0.9748943617705506
0.9723883961491497
0.9699352694363608
0.9679845177792984
0.966942937455151
0.9670223570983042
0.9682033829719965
0.9761326047021858
1.02555206905377
1.037197604038733
0.997917827973509
0.989428098772939
0.9971231722251794
1.017017488078673
1.073801023704843
1.086714393424216
1.027470822309699
0.9940005320023708
0.9859145473132673
0.9791663218711822
0.9665613839837522
0.964726231504009
0.9636355993638979
0.9626146028278313
0.9616125453235245
0.9608564545213859
0.9606682914426113
0.9613274209404907
0.9629704298358538
0.9655288251592815
0.9856964306551701
1.040248494415722
1.044177897913183
1.017125429629643
1.027458787927052
1.047361682158649
1.139477492979987
1.139036314484065
1.122895022399381
1.001071474873457
0.9774509647611032
0.9716017183016327
0.9676400641093175
0.9602583976685871
0.959584660419652
0.9592479958984348
0.9589671216764415
0.9587817128248256
0.9588734844760177
0.9595675943970842
0.9611036466499078
0.9640227737617324
0.9667829108383094
0.9730161715302363
0.9899851490930833
0.9798457420846285
1.032134690433419
1.138041978124903
1.141024753144453
1.117683961307973
1.055086381075007
0.9771315817887938
0.9700411463517542
0.9654104182901758
0.9626991478701397
0.961304247461886
0.9585022155833581
0.958397156350616
0.9583571969371967
0.9583631835752189
0.9584746119556762
0.9588697077302202
0.9599155483676829
0.9618485054435026
0.9660670801349535
0.9685250470447396
0.9713583674171631
0.9752696978531503
0.9804125189721836
1.000863829845716
1.071478688307037
1.058600474368728
0.9748019411036581
0.9678831109722592
0.963253281702669
0.960835479846778
0.9597525724475515
0.9593133573592171
0.9592924142048506
0.9583207183015329
0.9583569799302464
0.9583921873006545
0.9584547465226926
0.9586204682675873
0.9590796799095487
0.9601766490708344
0.9623338482402715
0.9660532243667638
0.9672205247156637
0.9696396054164796
0.9722822554689685
0.9754901284666706
0.9748314465158587
0.9695636465794659
0.9643302333152014
0.960661743899838
0.9591206810429695
0.9587260370280932
0.9586917188693098
0.958723380675164
0.958793443572493
0.9590597092349173
0.9584465081760727
0.9584827915879111
0.9585061930955735
0.9585545822040781
0.9587034803651444
0.9591354795923634
0.9601449728500017
0.9621530148645864
0.9643070180754794
0.9649357667160895
0.9658134183612279
0.9663173881111577
0.9657653365966733
0.9624422405416563
0.9579030728099893
0.9577222373070308
0.9581893600398078
0.958479788418709
0.958601418619737
0.9586297112841264
0.9586525994232311
0.9587517429499679
0.9590790321341682
0.9585336380373436
0.9585437478688413
0.9585514364216904
0.9585798641189611
0.9586983622997555
0.9590504935687777
0.9598805840103716
0.9613076225397835
0.9617698192135474
0.9621175716043896
0.9616615891538821
0.9607436724719027
0.9591801191224409
0.957702006484623
0.9576996692309099
0.9586381535023891
0.9586662884717077
0.9586039224523685
0.9585758055276832
0.9585712019606195
0.9586093187783686
0.9587433199970674
0.9591103263974584
0.9585529484587796
0.9585512301961784
0.9585515091763275
0.9585678242317953
0.9586476431968535
0.9588715003824902
0.9593760058843538
0.960226030358208
0.9602062050034628
0.9598834881366182
0.9593385764357109
0.9586860164477726
0.9582858143016261
0.958411595905968
0.95870231594146
0.9585696063688378
0.958534151962264
0.9585291012054127
0.9585366185988984
0.9585503471110648
0.9585983922418309
0.9587423808426928
0.9591233549789683
0.9585452456935384
0.9585419383423401
0.9585407433418761
0.9585474296317655
0.9585833410127944
0.9586822396834092
0.9588602062925758
0.9590378506484853
0.9591400708126702
0.9589815973551333
0.9587343638314785
0.958538828377845
0.9584895560885309
0.9585029584027982
0.9584980437621486
0.9585389557755878
0.9585292732074621
0.958527922215444
0.9585318337276811
0.9585438600467557
0.9585893704014664
0.9587281763071489
0.9591000510368853
0.9585361191561776
0.958534910730068
0.9585341052607401
0.9585343295670634
0.9585405389543883
0.9585640713592671
0.9586140335906469
0.9586756628038001
0.9587040070165902
0.9586637926109369
0.958574467097978
0.958498157587478
0.9584781102710901
0.9585065961338082
0.9585380003456552
0.9585309065598814
0.9585242691937935
0.9585249066663034
0.9585275874073252
0.9585380219796881
0.9585776778692362
0.9587006027897919
0.9590360233161977
0.9585329316666039
0.9585330664525218
0.9585325776507481
0.9585304425464357
0.9585254558523494
0.9585197827622981
0.9585197064847708
0.9585279929710703
0.9585352302889727
0.9585271400346462
0.9585055893463278
0.9584929477850297
0.9585038467856132
0.9585235230552982
0.9585297401092276
0.9585261720544639
0.9585229362178991
0.9585232151217499
0.9585245865781435
0.9585326567432556
0.9585643221412747
0.958664555139832
0.9589412045926003
0.9585330401122252
0.9585331739316001
0.958532739254419
0.9585309256600324
0.9585258010671589
0.9585161916727557
0.9585040846924027
0.9584944309781628
0.9584910122261088
0.9584926146106773
0.9584973868759555
0.9585058571177089
0.9585176231190603
0.9585261190018335
0.958526880968289
0.9585235645501161
0.9585218879127464
0.9585215212910982
0.9585218012939555
0.9585267774060229
0.9585481659411953
0.95861815777159
0.9588148933366547
0.9585328827584334
0.9585326732305223
0.9585322591585423
0.9585313814201297
0.9585291114014858
0.9585241351202854
0.9585161613762668
0.9585075622000518
0.958502505486068
0.9585035542367776
0.9585096809936012
0.9585174311940762
0.9585234137118456
0.9585254281984004
0.9585240456117007
0.9585220064071924
0.9585208418686515
0.9585199763970138
0.9585194048750045
0.9585214734127334
0.9585330922781903
0.9585740282579244
0.9586938247490872
0.9585316165115845
0.9585313268467223
0.9585309780194352
0.9585306117059821
0.9585300728324191
0.9585288572360888
0.9585263860460828
0.9585228201452778
0.958519588127458
0.9585185192172572
0.9585200619987846
0.9585226372770821
0.958524102080358
0.9585236599621294
0.9585221902439216
0.9585208341265871
0.9585197755041854
0.95851863525585
0.9585175373588577
0.9585175938218952
0.9585222668287644
0.9585419566623856
0.9586039039217064
0.9585301141213357
0.9585299224409787
0.9585296390864287
0.958529360125997
0.9585291105083743
0.9585288381601444
0.9585283656276706
0.9585274698335874
0.9585261749455614
0.9585249003930922
0.9585240766577391
0.9585236150214864
0.958523017938978
0.9585220321818499
0.9585208839824864
0.9585198128529939
0.9585187340624535
0.9585174882156062
0.9585161394343895
0.9585151188205372
0.9585159076327684
0.9585232009595692
0.9585499015813588
0.958528969713083
0.9585288296931196
0.9585285655487921
0.9585282558791275
0.9585278937536496
0.9585274708948768
0.9585269948470868
0.958526441629915
0.9585257356822328
0.9585248305656003
0.958523792975184
0.9585227475541196
0.9585217548006314
0.9585207967793389
0.9585198423179655
0.9585188523663051
0.9585177572243486
0.9585164950468291
0.9585150631210382
0.9585135857233531
0.9585126037713991
0.9585139682675625
0.9585230310274835
0.958527970572933
0.9585278224726496
0.958527556118166
0.9585272331927858
0.9585268445901637
0.958526356045587
0.9585257510640187
0.9585250457932385
0.9585242670009231
0.9585234271744728
0.9585225349829781
0.9585216181255957
0.9585207118800682
0.958519822681661
0.9585189171917633
0.9585179455824523
0.9585168610592975
0.9585156204305766
0.9585141903149114
0.9585125823486054
0.9585109572527483
0.9585099508332717
0.9585115036349406
0.9585268658159961
0.9585267296109188
0.9585264785774474
0.9585261666968481
0.9585257947830125
0.9585253334626221
0.9585247536459564
0.958524052789005
0.9585232594972148
0.9585224151326092
0.9585215529014455
0.9585206899738202
0.9585198293860228
0.9585189614967281
0.9585180642142201
0.9585171055209663
0.9585160458815909
0.9585148405632433
0.9585134488341339
0.9585118501696274
0.9585100764303524
0.9585083258016049
0.9585072320177181
0.9585257631205425
0.958525654111433
0.9585254292499275
0.9585251413053506
0.958524795897563
0.9585243721886775
0.9585238416151914
0.958523190722628
0.9585224340522046
0.9585216073168948
0.9585207493789614
0.9585198865401424
0.9585190268919703
0.9585181629249271
0.9585172756929398
0.9585163362601077
0.9585153060998263
0.9585141414898937
0.9585128033073664
0.9585112657528539
0.9585095261185994
0.958507649254688
0.9585058376727582
0.9585247323825626
0.9585246361471066
0.9585244290257019
0.9585241552463358
0.9585238236579099
0.9585234207397401
0.9585229234214269
0.9585223166952064
0.9585216057339827
0.9585208151722895
0.9585199788285875
0.9585191263931387
0.9585182736684352
0.9585174195662137
0.9585165481772885
0.9585156318504868
0.9585146338225784
0.9585135133687877
0.9585122349401639
0.9585107750396885
0.9585091264429804
0.9585073220270628
0.9585054429490258
0.9585236867174033
0.9585236059494033
0.9585234188746294
0.9585231642474051
0.9585228530582329
0.9585224771140723
0.9585220158731139
0.9585214519279001
0.9585207848693077
0.9585200335112462
0.9585192279754741
0.9585183977722624
0.9585175618801346
0.9585167239391118
0.9585158722723934
0.958514982232997
0.9585140195685374
0.9585129465138587
0.9585117310430479
0.9585103535190711
0.9585088102286669
0.9585071311295666
0.9585053695753231
0.9585226647374065
0.9585225959819378
0.9585224265683115
0.9585221900171808
0.9585218982039897
0.9585215471467565
0.9585211197931226
0.9585205981226492
0.9585199767007856
0.9585192679021981
0.9585184974998927
0.9585176944090571
0.9585168802849404
0.9585160630314821
0.9585152351220424
0.9585143751670495
0.9585134516058618
0.9585124293747479
0.9585112793185516
0.9585099852574729
0.9585085483779079
0.9585070027838895
0.9585053990266625
0.9585216520314214
0.9585215924912108
0.9585214381499311
0.9585212182536831
0.9585209452554572
0.9585206185055087
0.9585202239754094
0.958519743571872
0.9585191680304379
0.95851850408061
0.9585177729011138
0.9585170018911655
0.9585162145025719
0.9585154224761855
0.9585146224668339
0.9585137965985656
0.9585129161066056
0.9585119483030379
0.9585108660980619
0.9585096557614505
0.958508322814409
0.9585069066735005
0.9585054610522756
0.9585206489621444
0.9585205955996866
0.9585204532309739
0.9585202477617527
0.9585199919385875
0.958519687654629
0.9585193235748988
0.9585188820592143
0.9585183510048075
0.9585177322544526
0.9585170425133085
0.9585163071513141
0.9585155506317056
0.9585147879190219
0.9585140196611469
0.9585132316188002
0.9585123979185372
0.9585114879684504
0.9585104759661137
0.9585093494634067
0.9585081170544111
0.958506822840049
0.9585055251186869
0.9585196529163643
0.9585196027418375
0.9585194690644089
0.9585192752935598
0.9585190344316424
0.9585187503298697
0.9585184139550625
0.9585180083633513
0.958517519384916
0.9585169447726936
0.9585162970952309
0.958515599457243
0.9585148767217485
0.9585141464642564
0.9585134130017157
0.9585126657310407
0.9585118817317329
0.9585110323261439
0.9585100924237434
0.9585090498313377
0.9585079148025113
0.9585067348696409
0.958505572670965
0.9585186617325422
0.9585186119811382
0.9585184838689831
0.9585182989679111
0.9585180705947182
0.9585178041178889
0.9585174924348874
0.958517119412676
0.9585166694142901
0.9585161368124212
0.9585155304490662
0.9585148710890535
0.9585141835645232
0.9585134875502893
0.9585127906912499
0.9585120859265734
0.9585113532831033
0.9585105658757757
0.9585096989213319
0.9585087396561265
0.958507698584841
0.9585066251072208
0.9585055856876127
0.9585176732378484
0.9585176215501195
0.958517496282231
0.9585173176668421
0.9585170993835181
0.9585168479906904
0.9585165579666262
0.9585162139995435
0.9585157994466215
0.9585153059360276
0.9585147390388208
0.9585141172313284
0.958513465003944
0.9585128036997038
0.9585121439389322
0.958511482000777
0.958510800796136
0.9585100751859014
0.9585092805663089
0.9585084031413506
0.9585074525468397
0.9585064783867461
0.9585055494308751
0.9585166853397685
0.9585166298912254
0.9585165053933052
0.9585163309938717
0.9585161207818121
0.958515882210132
0.9585156110012346
0.9585152925827009
0.9585149096267943
0.9585144516072316
0.9585139213422342
0.9585133352266046
0.9585127172465657
0.9585120899841324
0.9585114665827955
0.9585108463571492
0.9585102149691505
0.9585095490107427
0.9585088240700619
0.9585080251200131
0.9585071601319389
0.9585062774927349
0.9585054470977143
0.9585156960101704
0.9585156356843092
0.9585155106989265
0.9585153392202918
0.9585151356805566
0.9585149081622669
0.9585146533039229
0.9585143571375012
0.958514001882086
0.9585135753887212
0.9585130782999571
0.9585125252582932
0.9585119396815727
0.9585113449934615
0.9585107563143601
0.9585101755127517
0.9585095907554454
0.9585089803934002
0.9585083204236234
0.9585075947555018
0.95850680934813
0.9585060102042194
0.9585052664476198
0.9585147033969886
0.9585146379463442
0.9585145122261319
0.9585143433037744
0.9585141458196345
0.9585139281854073
0.958513687651058
0.9585134106822593
0.958513079228177
0.9585126800062614
0.9585122121016517
0.9585116888415519
0.9585111331290308
0.9585105688635366
0.9585100124952026
0.9585094678049878
0.9585089250395016
0.9585083642390708
0.9585077620840047
0.958507101801218
0.9585063874241057
0.9585056620699499
0.9585049932069051
0.9585137059740692
0.9585136363416489
0.9585135108371479
0.9585133452260073
0.9585131540416709
0.9585129457103034
0.9585127177643882
0.9585124570064893
0.9585121453517151
0.9585117689627325
0.9585113260601368
0.9585108291795015
0.9585103007975923
0.9585097648414891
0.9585092382601434
0.9585087258324122
0.9585082192684929
0.9585077002291461
0.9585071465395913
0.958506541477544
0.9585058876869228
0.9585052252846266
0.9585046188722618
0.9585127035668155
0.9585126319990104
0.9585125091519261
0.9585123488952991
0.9585121651318952
0.9585119657913216
0.9585117484512468
0.958511500389955
0.958511204041715
0.9585108458421461
0.9585104239426756
0.9585099504961102
0.9585094473718044
0.9585089378018617
0.9585084381715848
0.958507953226781
0.9585074754780444
0.95850698815105
0.958506470797255
0.9585059077298659
0.9585053011796453
0.958504688940136
0.9585041328588164
0.95851170030399
0.9585116294412364
0.9585115134824709
0.9585113623412532
0.9585111879452284
0.9585109968861594
0.9585107867034696
0.9585105459919792
0.9585102592883789
0.958509914966039
0.9585095120574709
0.9585090620915666
0.9585085849357262
0.9585081011181691
0.9585076246531598
0.958507159228301
0.9585066982829054
0.9585062277969791
0.9585057308662994
0.9585051946305322
0.9585046220909961
0.9585040489921264
0.9585035336794936
0.9585107044813223
0.9585106389072036
0.9585105365848753
0.9585104003702078
0.9585102378033686
0.9585100524286072
0.9585098419856174
0.9585095988851017
0.9585093137331574
0.9585089804667768
0.9585086002040752
0.9585081815437992
0.9585077372446008
0.958507279424286
0.9585068159715889
0.9585063494209832
0.958505877719144
0.9585053954762185
0.9585048952399453
0.9585043706963927
0.9585038261302442
0.9585032935704633
0.9585028252429635
1000.853019874577
1000.848252921647
1001.02782951947
1001.135832652107
1001.31581126319
1001.045279777979
1001.017713083993
1001.120975340323
1001.350345674878
1001.346471441329
1001.326525172979
1001.333162706381
1001.335406765564
1001.336788464611
1001.337917970542
1001.338841850689
577.6645973992491
608.1019552146489
700.5400011995791
865.591053704539
13.549326124694
21.07528557069923
31.4277401072315
49.07545759034632
1.198917854108546
1.064611730709833
1.066711679535006
1.066967459001234
1.001994417556679
0.999099603537993
0.9963663956095332
0.9938699736262648
0.9765130421260076
0.9743605271819581
0.9725382263838428
0.9710203001356578
0.9662377340141269
0.9652074332349796
0.9644398902203831
0.9638407480737269
0.9608870886108468
0.9606426270766323
0.9605625412654376
0.9605237873767526
0.9593523375123009
0.959495160047462
0.9598036185161273
0.9601577651240747
0.9592542337139188
0.9595876520570772
0.9601758059262052
0.9609492817962023
0.9593864409783076
0.9599360449003582
0.9608319354167865
0.9621059807335803
0.9595749450355325
0.9603523142782758
0.961525124779937
0.9632413149283214
0.9597559976015935
0.9606819531998815
0.9620172383349203
0.963980960086359
0.9598434841911057
0.9607838485118906
0.9621384567059061
0.9641111065373813
0.9597774126925849
0.9606219923687676
0.9618669727718433
0.9636528796318186
0.9595684041058676
0.960268349794645
0.9613084071650235
0.962800523068843
0.9592705845705229
0.9597840406777157
0.9605529391155883
0.961664159544643
0.9589814518778437
0.9593133920146911
0.9598193948825384
0.9605627266195402
0.9587607760128926
0.958948330817381
0.9592417020078561
0.9596831460237276
0.9586232831061199
0.9587153609901116
0.9588648451255607
0.9590980786467185
0.9585523371847708
0.9585913692878445
0.9586574887253765
0.9587649029751437
0.9585209200915852
0.9585348473942515
0.9585599570529519
0.9586029254745321
0.9585090452319462
0.9585128225312566
0.958520594369596
0.9585350476626514
0.9585052034401608
0.9585054828603574
0.9585069736048432
0.9585105871038045
0.9585042013483388
0.9585034934719782
0.9585030734846411
0.9585031874383935
0.9585040789300272
0.9585031880993012
0.9585023214756073
0.958501512998852
0.958504202787134
0.9585033510217914
0.9585024621198602
0.9585015150891656
0.9585043850878212
0.9585036211932219
0.9585028123053447
0.9585019284274844
0.9585045659159964
0.9585038940186686
0.9585031807800186
0.9585023983366942
0.9585047196771536
0.958504132957251
0.9585035105365404
0.9585028284577675
0.9585048277727791
0.9585043177471063
0.9585037771760114
0.9585031859172773
0.9585048747146608
0.9585044318361864
0.9585039633149046
0.9585034520650796
0.9585048452346728
0.958504460766484
0.9585040546772405
0.9585036125662126
0.9585047263272777
0.9585043910905843
0.9585040380863769
0.9585036548329152
0.9585045058270099
0.9585042118425653
0.9585039030890334
0.9585035688210553
0.958504174377825
0.9585039135533853
0.9585036407369587
0.9585033463348339
0.9585037240901956
0.9585034898063999
0.958503245458948
0.9585029824360998
0.9585031563140003
0.958502943209434
0.9585027211975564
0.95850248210044
0.9585024922139365
0.9585023049253609
0.9585021087523486
0.9585018942768415
964.5197096958055
1000.306448263717
897.2373166710137
387.5674590809003
245.2300557012904
319.1236237297429
344.9946381645375
225.87453150741
55.23776568598048
2.708317584505878
1.120000246876483
1.084804933743865
1.043461573984561
1.00079997895682
0.9748502812288296
0.9651640681732873
0.9622706927475629
0.9616294343433225
0.9615368479077997
1001.355653702533
1001.355231742345
1001.353898167276
1001.351285226772
1001.346886488377
1001.340844646111
1001.334336869852
994.9994474766017
814.7606182307557
479.234230410664
206.1251621365615
38.05160479561413
1.171352110702825
1.080416185343267
1.012933528990711
0.9791244478124402
0.9659629385567359
0.9622559448322573
0.961591861465625
1001.346240273462
1001.351628657047
1001.350874013119
1001.349703874434
1001.348096198043
1001.346053007562
1001.34359249534
1001.340703048999
1001.337247585014
1001.33284826384
1001.326748917265
779.5879678825382
244.8136477474762
6.750415649492476
1.096375595800867
1.019379116990894
0.9805584241691316
0.9657480427358025
0.962004614297106
1001.340192712252
1001.340345632887
1001.340144178633
1001.339787037846
1001.339391508664
1001.339006138797
1001.338405119961
1001.337440402143
1001.335967606962
1001.333750465823
1001.33020401358
1001.324650275185
998.8756185838356
539.4172846947143
20.80384807387806
1.076546650133744
1.004388351688236
0.9735161201032609
0.963313079154283
859.3494077299116
780.9303227864391
771.4824487903038
767.9957912175016
731.6262697533884
678.3211634293011
694.0664041727713
806.3969863724918
943.5088794683151
998.1421523668255
1001.328241060563
1001.325401502238
1001.320568086384
1001.312239692727
547.4595846907101
12.90736609236938
1.054366546461954
0.9907441091012624
0.9667142817237843
47.28462590624742
31.22796318403258