/*--------------------------------*- C++ -*----------------------------------*\
| =========                 |                                                 |
| \\      /  F ield         | OpenFOAM: The Open Source CFD Toolbox           |
|  \\    /   O peration     | Version:  2206                                  |
|   \\  /    A nd           | Website:  www.openfoam.com                      |
|    \\/     M anipulation  |                                                 |
\*---------------------------------------------------------------------------*/
FoamFile
{
    version     2.0;
    format      ascii;
    arch        "LSB;label=32;scalar=64";
    class       volScalarField;
    location    "0.35";
    object      T.air;
}
// * * * * * * * * * * * * * * * * * * * * * * * * * * * * * * * * * * * * * //

dimensions      [0 0 0 1 0 0 0];

internalField   nonuniform List<scalar> 
2268
(
272.9999579231667
272.9999571129504
272.9999568003903
272.9999563926121
272.9999559304592
272.9999554846976
272.9999550880322
272.9999547635754
272.9999545419878
272.9999544643822
272.9999545826346
272.99995496201
272.9999557024447
272.9999570170355
272.9999594273682
272.9999641280273
272.9999731669317
272.9999936342534
273.0000439301664
273.0001768354055
273.0005745534285
273.0021090701019
273.0125895444837
272.9999220097215
272.9999213585798
272.9999211288742
272.9999208421281
272.9999205205733
272.9999202164011
272.9999199592128
272.9999197665632
272.9999196502305
272.999919614711
272.9999196580484
272.9999197847811
272.999920078637
272.9999209001779
272.9999232564969
272.9999294169381
272.9999436767309
272.9999749191014
273.0000435818891
273.0002027413036
273.0006261906201
273.0021419119959
273.0122988852942
272.9999236086402
272.9999246283688
272.999925988313
272.9999276596789
272.9999294860759
272.9999314056347
272.9999333983813
272.9999353955733
272.9999372279707
272.9999385913133
272.9999390313765
272.9999379805712
272.9999349902083
272.9999302574417
272.9999254261286
272.9999246014892
272.9999388894701
272.9999789553617
273.0000666957868
273.0002536761401
273.0007015964784
273.0021845082991
273.0119198347025
273.0000532626655
273.0000602869006
273.0000682259433
273.000077446977
273.0000874328954
273.000097933871
273.0001088064032
273.0001197059833
273.0001298700025
273.0001379478213
273.0001418932031
273.0001390214867
273.0001266141365
273.0001031727409
273.0000700399014
273.0000335847905
273.0000222759296
273.0000507838985
273.0001414965487
273.0003426961927
273.0008007473024
273.0022267894752
273.0114396051071
273.0005063676444
273.0005291106249
273.0005554197934
273.0005850249159
273.0006171106278
273.0006513275385
273.0006873698022
273.0007243361246
273.000760120567
273.0007908528095
273.0008104952177
273.000810867995
273.0007829416552
273.0007194143282
273.0006172519645
273.0004814914548
273.0003742514812
273.0003265361311
273.0003621229598
273.0005266227276
273.000950645542
273.0022759733073
273.0108566828847
273.0016196017522
273.0016754857734
273.0017417041681
273.0018152726364
273.0018956846781
273.0019829201849
273.0020766646729
273.0021752294466
273.0022741129175
273.0023645706644
273.0024325615626
273.0024586790548
273.0024205397038
273.0022977415281
273.0020742321894
273.0017402574024
273.0013955022031
273.0011246427959
273.0009600632548
273.0009542398313
273.0012314803055
273.0023654398197
273.0101779743424
273.0038679585069
273.0039823232498
273.0041200248376
273.0042737165044
273.004444109005
273.0046323928617
273.0048387922084
273.0050608538003
273.0052904143276
273.0055105771169
273.0056936078146
273.0058009373782
273.0057871610096
273.0056103963256
273.0052325409785
273.0046035759701
273.0038099226641
273.003062381569
273.0024158821913
273.0019562809227
273.0018356682144
273.0025841835699
273.009429460608
273.0078034440432
273.0080064733441
273.0082535759818
273.0085352923073
273.0088532550129
273.0092112383091
273.0096109851238
273.0100495806278
273.0105135457193
273.0109733562732
273.0113802307936
273.0116670905217
273.011754687752
273.0115766295762
273.0110810443304
273.0101537392466
273.008700968243
273.0071546300072
273.005594490307
273.0041823734602
273.0031763327332
273.0031419532434
273.0086892600952
345.3738028536584
345.3739503400305
345.3742691563625
345.3746635844269
345.375060413368
345.3749639603469
345.3736486031158
345.3735029338611
345.3753536265693
345.3783214338317
345.3814377178725
345.384147078317
345.3864363706541
345.3884657955866
345.3902939787969
345.3918738543605
345.3931228281235
345.3939748924029
345.3944242758299
345.3737585969164
345.3738263892093
345.3741984201801
345.374219950186
345.3719414359621
345.3584133838397
345.3270711478053
345.3140235084016
345.3228435576482
345.3427715959726
345.3632574683763
345.37723521742
345.3844918915931
345.3880465763501
345.3902148639675
345.3918727100441
345.3931505942871
345.3940187641663
345.3944821753466
345.3735591015116
345.3690741732725
345.3738254094718
345.3698597805821
345.3409272847891
345.209216439601
344.9866035585674
344.9241751218308
344.981687670907
345.0995671980242
345.2288178246411
345.3215442829084
345.3677369946654
345.3844782852204
345.3896775914066
345.3918886837653
345.3932658877543
345.3941548084841
345.3946286958905
345.3560789260916
345.21739088256
345.3741356701472
345.3382325112616
345.1345137459993
344.3373107130222
343.4331544583778
343.3386983059267
343.5940571014604
344.0483965755787
344.591843782319
345.0270343967092
345.2686399201129
345.3610219346582
345.3855218549529
345.3914110580774
345.3933995547761
345.3943744671376
345.3948628909932
345.2325272955734
342.8651319987268
345.4160623194866
345.1869245362057
344.2050728608378
340.7637828055832
338.5981893363164
338.8676092520721
339.6683966879871
340.8819088521344
342.4684268828074
343.9118970669574
344.8394602179544
345.2460499191232
345.3626046626002
345.3878170539752
345.3932033981134
345.3946457577605
345.395182567427
341.1165244397989
327.3991486415773
345.26494720768
344.4173569380631
341.6635854989311
330.421865871693
327.8693382493362
329.4197098033515
331.3705537913392
333.8663718719698
337.2499596575739
340.7496077856702
343.4130916453544
344.804105795828
345.2631295007147
345.3698796195049
345.3910409706763
345.3948067853535
345.3955775849737
350.0923076634261
293.2891685803979
339.4514428426814
349.7716536838568
335.6496089585858
311.6636811617021
310.2824051483618
313.408551354227
317.3632763204516
321.9144314475762
327.535377675594
333.888226010113
339.6887030850053
343.4324912512901
344.9086963809157
345.2979516540178
345.3804935302502
345.3941645357011
345.395999725181
307.7455688851674
273.8037154000048
273.8179117279612
275.1508078141371
296.5202625451802
291.339184205753
289.2140338474601
292.1967994923282
297.3498963903676
305.1934420285698
313.5051581484372
322.3540429321977
331.965982086295
339.9238281090276
343.8402747351659
345.0490419903672
345.338818230527
345.3901396154235
345.3963512801508
273.0139520163754
273.0142744015955
273.0146676332849
273.0151347968509
273.0156715685821
273.0162868297974
273.0169846865056
273.0177618525577
273.018596539289
273.0194399079069
273.0202131113256
273.0208112581024
273.021111602358
273.0210379069302
273.0205967127654
273.0197090656691
273.0178972161425
273.0160531569207
273.0139604288319
273.0115793531319
273.0090717984808
273.0069914914397
273.008443799168
273.0303690790001
273.0309228698187
273.0316819414853
273.0326114367463
273.0336990856537
273.034974273408
273.0364354272466
273.038074298605
273.039839377903
273.0416216686445
273.0432619980622
273.0445600920945
273.0452724573269
273.0453215957376
273.0449990034226
273.0445955297965
273.0436154169301
273.040651537478
273.0365251473193
273.0313127980766
273.0254495103486
273.0197918403346
273.0162410491336
273.0554739766434
273.0562286056268
273.0575141583133
273.0590881981572
273.0609387130552
273.0631455765207
273.0656342818096
273.0683901853856
273.0713067019274
273.0741755772992
273.0767515286386
273.078724982882
273.0796277534972
273.0793371924303
273.0786622185244
273.0790765991954
273.0813997219309
273.0818929610688
273.0795262290267
273.0733210514614
273.0640513933369
273.0533560567539
273.0432636159088
273.0880682536591
273.0890315858051
273.0909661689426
273.093077713977
273.0955422092688
273.0985558478656
273.1017859279756
273.1053386300936
273.1091478425144
273.1129979810002
273.1167616358267
273.1201537799635
273.1222677013462
273.1224285869795
273.1193649792395
273.1178084665018
273.1259672402498
273.1403636350856
273.1486387251371
273.1481869382123
273.139303458349
273.1243587471909
273.1073942782858
273.124484741932
273.1260325781103
273.1289567395405
273.1317415429257
273.1356654883322
273.1414248964718
273.1488405984506
273.1592284847378
273.1740905775367
273.1954939254886
273.227398072944
273.2756442723307
273.3465703632207
273.4548708304443
273.6991041013583
273.6654293203753
273.3919169224508
273.3933744748386
273.404675516342
273.3792335823537
273.3261939967667
273.2703526734037
273.2296051980576
280.7158394173509
280.9573798523673
281.5819009599828
282.5427362957006
283.9184399026043
285.5067826232323
287.5222072890698
289.7561852437403
292.0536416795848
294.2467804625106
296.1746290247475
297.542178861864
297.6481748983927
295.8001325713402
292.1060139860676
288.3308396783611
288.4773618993769
292.7822018027404
297.5615864663581
301.1133659562713
300.8655580997651
300.1819541230777
277.5054265830674
305.6113229565635
306.8790816568538
308.0750020581239
309.2926965990417
311.0711362039006
313.2136175288061
315.4717842148513
317.6827040952743
319.5892604107393
321.0499670560686
321.899659399426
321.9653218779333
320.5565941393195
316.8212662351028
311.3736614908722
306.7440149485175
304.8236519698717
305.3780321279474
307.2746612413661
309.6294472190912
311.3767578589092
311.7813395632422
311.5468919587111
324.9900207519127
326.3931278998621
327.5981128376133
328.8679072858035
330.3675607318496
332.0179977770007
333.5727762757578
334.8463369233274
335.6991989874757
336.0775875575392
335.933028958164
335.2353784211099
333.6785121333558
330.8805132934641
326.9274516493907
322.7910995664226
319.6942634465568
318.2394169097003
318.5486602010885
320.4500705510795
323.33264927294
326.3629152728768
329.0065413408802
336.5163776542466
337.7485139041601
338.4966868643941
339.2786249488501
340.1529162893457
341.0131222334356
341.7002284861738
342.0681463012542
342.0398673906365
341.6224371041946
340.8291315236527
339.7754853580906
338.4113871148006
336.6005260191192
334.2929840965315
331.7129102849285
329.435149397118
328.1712777589415
328.3832530059091
330.0906034026649
332.7527145630467
335.4810097669843
337.7921443960229
342.2031473481694
342.8540919394883
343.2420951000622
343.606097423189
343.9640781683014
344.2346264257815
344.3026893736049
344.0671039744132
343.4784152834221
342.5680597365547
341.3496978306559
340.0698547330573
338.5844093785842
336.8090867071745
334.8727866948115
333.0535828583708
331.8796540287159
331.9159164754672
333.3553636011991
335.8178038419904
338.3858917136462
340.422259144682
341.8150729644663
344.4487367996534
344.6905621589576
344.8114964838432
344.9124250246359
344.9790692155971
344.9458930581475
344.7091422844238
344.1675721970757
343.2876783189062
342.1344698031562
340.7528053449135
339.3360791464491
337.5611739633329
335.5577239256087
334.0245845503909
333.2955236377343
333.8922611067674
335.8788870667074
338.580746095406
340.9705847285229
342.6054436577673
343.5695166275459
344.0670750339079
345.0792619461656
345.1170688731312
345.1314132406069
345.1291903015805
345.089056548498
344.9466397642648
344.591292351675
343.9274615170775
342.9607617734526
341.8045688996451
340.510564715129
339.1446569415377
337.3653750202186
335.8958523528025
335.792814726929
336.9401279523119
339.3059278539775
341.7310559970564
343.3731183291926
344.2366054769243
344.6243194082086
344.7812491832391
344.7877548818155
345.1440415027075
345.1309586905053
345.1182308192883
345.0956394154634
345.0359816158725
344.8705199733685
344.4911785973104
343.8342677711059
342.9673072127579
342.0416299905248
341.1135319363507
340.1861055517896
339.1832450327177
339.2959398016389
341.1390833148328
342.9901269455432
344.299562477832
344.8523533343062
344.9938077578215
345.0055487707523
344.9934130558711
344.9673006311546
344.8704494360996
345.0981753374643
345.0850860117711
345.0766094171087
345.0591238741079
345.0055212088815
344.8498711019412
344.5076266319873
343.968083732007
343.3537019131331
342.8279209242963
342.4643117063695
342.2854197308474
342.4807844432894
343.6629865867416
345.2911603617242
345.3560092414165
345.1872552129688
345.0822016281584
345.0378689205316
345.0270276288131
345.0179988686307
344.9813664363132
344.8625009915822
345.0662474217224
345.0625808126446
345.059760185842
345.0494584340864
345.0067412337323
344.8798604489045
344.6229930681557
344.2728237454294
343.9662851889213
343.8405486297921
343.9422868268721
344.2706135639972
344.8314993010969
345.3633842358614
345.3638773271473
345.0253880761448
345.0148270403951
345.0367688287661
345.0462953440126
345.0472472108361
345.03268758485
344.9834558540584
344.8502452261948
345.0587478031816
345.0593380509994
345.0591836134464
345.0532320422516
345.0243940756836
344.9436849091334
344.7974783325194
344.6287681413903
344.5328505599227
344.5850730249891
344.7745808875897
345.009020989512
345.1527424298862
345.1070899581958
345.002060341357
345.0494040058149
345.0616923971708
345.0629648356718
345.0596220939452
345.053931133111
345.0357520304153
344.9828756231618
344.8445870283385
345.0609834579489
345.0621450484493
345.0625197825411
345.0600280224915
345.0469940352909
345.0113557343097
344.9491725580406
344.8829236218735
344.8579369627161
344.9027256957626
344.9914552366465
345.0615390349366
345.0788110306615
345.0736051850611
345.0749723460713
345.0597933886747
345.0627701792956
345.0626756645559
345.0605936629336
345.0554773274893
345.0381713582092
344.9871163874328
344.8520521509661
345.06374256034
345.0641480519525
345.0643816243375
345.0642144513366
345.0618738964156
345.0532699032956
345.0350808135733
345.0126919701599
345.0022553865465
345.0166532719886
345.0486496492489
345.075671712044
345.0823712980854
345.0717172185626
345.059989131986
345.0620684235204
345.0639206819226
345.0630813898277
345.061411160545
345.0568373313782
345.0416079505867
344.9962347636522
344.874244095702
345.0643743175133
345.0642958557693
345.0644148453237
345.0650961826086
345.066779582109
345.0686846273543
345.0685261629176
345.0653473911457
345.0626327316928
345.0654648822429
345.0729287769454
345.0769980606914
345.0725528597987
345.0650620225113
345.0623845349946
345.0631760861413
345.0637838273186
345.0630490369481
345.0618276447699
345.0580830605495
345.04570894622
345.0084800058271
344.9076075757409
345.0638299281895
345.0637515189505
345.063850642377
345.0644157015649
345.0661438427751
345.0694580860721
345.0736440453632
345.0769390741003
345.0780805616746
345.0773343852804
345.0752901112126
345.0717148560557
345.0670555539011
345.0635869230782
345.0628604362724
345.0635472803135
345.063578704421
345.063060932684
345.0622178974771
345.0595739764206
345.050886353031
345.0245355548498
344.9524016310951
345.0633913686703
345.0634363946791
345.0635279266395
345.0637560142465
345.0644558412847
345.0660995461298
345.0687933143598
345.0717045647632
345.0733332007501
345.0727028354073
345.0701699372495
345.0669927199472
345.0644577979696
345.0633185009824
345.0633553191549
345.0635729662916
345.0634104509744
345.0630632485158
345.0625193905724
345.0609172300959
345.0557445580286
345.0398587236856
344.9954240442867
345.0633619370648
345.0634357835107
345.063503881432
345.0635481403663
345.0636252671262
345.0639159103563
345.0646286924816
345.0657081262001
345.0666381113605
345.0667541996847
345.0658930714517
345.0646241526285
345.063720877613
345.0634626854488
345.0635262920853
345.0634934216795
345.0632887642447
345.0630379401642
345.0626836331388
345.0618094371657
345.0591459301868
345.0509272008006
345.0273468756651
345.0634271914435
345.0634658747578
345.0635106925818
345.0635241211573
345.0634980270557
345.0634503511733
345.0634447752153
345.0635613584862
345.0637907485219
345.0639809618557
345.0639756643224
345.063804760608
345.0636443328503
345.0635812594165
345.0635285799505
345.0633932110193
345.0631972759202
345.0629882634183
345.0627315869248
345.0622571338564
345.0610106744977
345.0572852184446
345.0464406700472
345.0633728914742
345.0633932183019
345.0634316398737
345.0634570663702
345.063472792192
345.0634810418816
345.0634787971243
345.0634742014863
345.0634938265122
345.0635534306579
345.0636275361534
345.0636691186479
345.0636533981239
345.0635828633235
345.0634636866469
345.0633036478034
345.0631202376927
345.0629268603647
345.0627142149898
345.0624239798941
345.0618428195102
345.0602924148351
345.0558560258725
345.0632751294424
345.0632987223574
345.0633386705094
345.0633701153513
345.0633970758255
345.0634311840526
345.0634780289597
345.0635312454265
345.0635804809534
345.063620210558
345.0636458307412
345.0636452889858
345.0636030774136
345.06351323318
345.063383165501
345.0632251573132
345.0630492795881
345.0628632910085
345.0626701833646
345.0624536403287
345.0621397034053
345.0614918226004
345.0598253306689
345.063223613451
345.0632433805907
345.0632787298783
345.0633077137146
345.0633307166804
345.06335766534
345.0633986592687
345.0634540372526
345.0635127511578
345.0635588702197
345.0635789992223
345.0635650001176
345.0635132022563
345.0634237846567
345.0633006010567
345.0631501777979
345.0629808298473
345.0628019532803
345.0626204452092
345.062433094647
345.0622148448429
345.0618904263139
345.0612485479151
345.0631788553532
345.0631893695637
345.0632163693158
345.0632384783655
345.0632542883791
345.0632707121297
345.0632976567113
345.0633393949668
345.0633899505611
345.063435462993
345.0634605892865
345.0634540691162
345.0634106755553
345.0633302005874
345.0632158804336
345.0630738060048
345.0629127964168
345.0627429571568
345.0625718511305
345.0623997174683
345.062216374156
345.061997745885
345.0616898331443
345.0631148693171
345.0631213856906
345.0631431953774
345.0631621291147
345.0631755569618
345.0631878201841
345.0632068628602
345.0632375484854
345.0632773157394
345.0633163663421
345.0633412980756
345.0633398276446
345.0633042404656
345.0632324144926
345.0631270180594
345.0629943568832
345.0628434732027
345.0626844367669
345.0625247322877
345.0623652998945
345.0621998755609
345.0620185821462
345.0618124970133
345.0630620315171
345.0630636262806
345.0630795077706
345.0630936066087
345.0631024682854
345.063108582077
345.0631190109164
345.0631395331798
345.0631696651344
345.0632018058917
345.0632240358887
345.0632243559479
345.0631942120845
345.0631301854542
345.0630339453468
345.0629113822588
345.0627714656285
345.0626241950138
345.062476937713
345.0623307143698
345.06218011293
345.0620185330735
345.0618479341983
345.0630054837572
345.0630034302868
345.0630143030473
345.0630240433857
345.0630288310238
345.0630297076662
345.0630325209193
345.0630433353205
345.0630635628166
345.0630880420964
345.0631065888329
345.0631076508074
345.0630820211774
345.0630251499123
345.0629377254234
345.0628251079515
345.0626960873728
345.0625606228266
345.0624261233517
345.0622937445834
345.0621582257126
345.0620132801811
345.0618623292013
345.0629494218217
345.0629447412355
345.0629515672329
345.0629575036692
345.0629584815809
345.0629544127998
345.0629501059378
345.062951727176
345.0629621659505
345.0629784267063
345.0629921585739
345.0629925930444
345.0629701857871
345.0629193991145
345.0628399082972
345.0627364162626
345.0626174423091
345.0624929475929
345.0623705831688
345.0622518891627
345.0621317446719
345.0620033793412
345.0618691826662
345.0628927102487
345.0628864954704
345.0628903910389
345.0628933237286
345.0628910840326
345.0628827380067
345.062872180114
345.0628654946654
345.0628666983584
345.0628746940426
345.062882923713
345.0628815854406
345.062861071242
345.0628150587069
345.0627422486837
345.0626465989429
345.0625362615156
345.0624212177166
345.0623095415448
345.0622034492631
345.0620981952533
345.0619864159122
345.0618686727914
345.0628352924802
345.0628286054401
345.0628307240778
345.0628315904481
345.0628268731476
345.0628150014509
345.0627990998415
345.0627850854379
345.0627778266532
345.0627778381744
345.0627802305425
345.0627762452283
345.0627564156566
345.0627138310881
345.0626462990689
345.0625569825444
345.0624535763538
345.0623460604008
345.0622430348492
345.062147625261
345.0620557561134
345.0619596302373
345.0618578456534
345.0627769759889
345.0627707847242
345.0627721976196
345.0627719305269
345.0627655129911
345.0627508931771
345.0627305598975
345.0627102209698
345.0626953787531
345.0626879001486
345.0626844087033
345.0626772029148
345.062657092362
345.0626167330127
345.0625531218055
345.0624686069615
345.0623703577696
345.0622683084682
345.0621716258651
345.0620845047645
345.0620038435562
345.0619217293443
345.0618348163262
345.0627176161097
345.0627127310465
345.0627143394665
345.0627137464422
345.0627063278289
345.0626896640911
345.0626657327475
345.0626400249912
345.0626185059671
345.0626041580522
345.0625949418887
345.0625841772121
345.0625630374896
345.0625238679181
345.0624629387394
345.0623818006071
345.0622870493119
345.062188503808
345.0620958409132
345.0620143581729
345.0619421442482
345.0618715703891
345.0617977841586
345.0626570974477
345.0626541265045
345.0626565778538
345.062656248107
345.0626483441619
345.0626301793464
345.0626033375239
345.0625731168922
345.0625458220221
345.0625253274723
345.062510729484
345.0624962742276
345.0624735306406
345.0624346527841
345.0623753025339
345.0622962866491
345.0622036061587
345.0621068875408
345.0620162159088
345.0619379384059
345.0618714540058
345.061809776107
345.0617469110985
345.0625953520206
345.0625946405851
345.0625982707439
345.0625984862118
345.0625903489839
345.0625709936934
345.062541723358
345.0625076840262
345.0624754262433
345.062449512102
345.06242994836
345.0624117666753
345.0623869259077
345.0623474959426
345.0622886821666
345.0622106659107
345.0621188759409
345.0620226587971
345.0619323394772
345.0618551401559
345.0617917512847
345.061736137084
345.0616818311612
345.0625323371925
345.0625339116987
345.062538677778
345.062539360355
345.0625309247324
345.062510427057
345.0624789923736
345.062441666672
345.0624051686519
345.0623745568226
345.0623505068443
345.0623286546407
345.0623013000114
345.0622605239417
345.0622012641024
345.0621232543223
345.0620314417803
345.061934846668
345.0618438525875
345.0617663168908
345.061704068774
345.0616521304586
345.0616039051155
345.0624680185348
345.0624714711007
345.0624768841035
345.0624775284114
345.0624683860223
345.0624465394424
345.0624130462219
345.0623728765278
345.062332819071
345.0622982039459
345.0622701059457
345.0622445518183
345.0622141202081
345.0621710281856
345.0621102016306
345.0620312054753
345.0619386690077
345.0618412455925
345.0617491366611
345.0616704793131
345.061607947053
345.0615576202442
345.0615132619117
345.0624020473635
345.0624064983198
345.0624115234111
345.0624111409567
345.0624005386987
345.0623770013166
345.0623415962262
345.0622991569369
345.0622563292025
345.0622183994776
345.0621865342079
345.0621569781987
345.0621226235792
345.0620760475678
345.0620125046829
345.0619317138514
345.0618381710767
345.0617401231116
345.0616473120655
345.061567718679
345.0615044250986
345.0614543082276
345.0614115356777
345.0623326099338
345.0623370356504
345.0623400005156
345.0623369808718
345.0623238545497
345.062298404514
345.0622617310864
345.0622182183333
345.0621737854693
345.0621330584656
345.0620969314535
345.0620619274653
345.0620217224717
345.0619699402362
345.0619027726169
345.0618204145606
345.0617271311172
345.0616302791059
345.0615384259983
345.061458681384
345.0613940455619
345.0613420898384
345.0612977462971
345.0622550547983
345.0622578098053
345.0622561868119
345.0622482079547
345.062231322493
345.0622044232768
345.0621685489405
345.0621267216966
345.062082690574
345.0620390973531
345.0619961086324
345.0619513306716
345.0619010324654
345.0618419051519
345.0617723915036
345.0616931539036
345.0616068919355
345.0615179109222
345.0614314296868
345.0613522892692
345.0612831670985
345.061222940406
345.0611682060356
273.0090065059346
273.0095890862149
273.0102898010499
273.0111769238922
273.0154978774675
273.0152222705406
273.0152195482859
273.015412407124
273.0399163835781
273.0376425443787
273.0360794108298
273.0349990945533
273.100640993657
273.0950249196874
273.0904338616999
273.0866785680496
273.2155825217219
273.2034247029226
273.1928102788197
273.1833009894234
275.8538613038926
274.7452049924194
274.1668786179014
273.9206154511588
311.4127512030814
310.679799114146
310.0675238080482
309.9926116943927
330.0959870348277
331.0517026104893
331.9591597375411
332.7922819987476
338.708974227438
339.4565721463646
340.091955834622
340.6228686997635
342.3102209772636
342.6749789611792
342.9470664092481
343.1595749869921
344.2154522144467
344.302339150559
344.330362584616
344.3435455506549
344.7652016588186
344.7131619378954
344.601666964725
344.4738080411965
344.799470214204
344.6789272539271
344.4670425167796
344.1889678938235
344.7509259798036
344.5527799022893
344.2307168469861
343.7740107255877
344.6821689491663
344.4023741804084
343.9814488147903
343.3676642722638
344.616145304547
344.2831725190699
343.8044225956399
343.1030995234952
344.5837947357123
344.2456991596162
343.7601221648811
343.055772638856
344.6066628347334
344.302838093537
343.856275653939
343.2180173688677
344.6809746659672
344.4288905780799
344.0553333484674
343.52113004276
344.7873543551212
344.602075207717
344.3253341238786
343.9264765853125
344.8907991414434
344.7706578952732
344.588032363187
344.3204143064921
344.9697872366435
344.9015477071233
344.7952336760156
344.6357078092947
345.0189747402308
344.9851085782061
344.9305391590217
344.8457789559865
345.0443134536257
345.0295779552112
345.0050415846308
344.9655605521839
345.0555071068237
345.0498540955491
345.0401273706879
345.0238894330582
345.0597353980718
345.0577846503724
345.0543524339117
345.0484383248265
345.0611277341947
345.0604858712936
345.0593697483012
345.0574203638413
345.0615396775692
345.0613031893095
345.0609301450392
345.0603036067852
345.0616626928556
345.0615413603936
345.0613834761215
345.0611509813126
345.061711019169
345.0616233507627
345.0615259811597
345.0614030464893
345.0617393392482
345.0616654014565
345.0615889604483
345.0614996700322
345.0617574530838
345.0616927385348
345.0616281248481
345.0615546112161
345.0617642183739
345.061707676492
345.0616526501282
345.0615906661578
345.0617574522989
345.0617083050244
345.0616617875637
345.0616097961778
345.0617353098617
345.0616929733258
345.061654012211
345.0616107698031
345.0616972532652
345.0616607817437
345.0616283162504
345.0615925831705
345.0616431655275
345.061611786731
345.0615847099623
345.06155512613
345.061573708821
345.0615462880103
345.0615234134162
345.0614986191064
345.0614894095499
345.0614649393627
345.0614450144774
345.0614235487698
345.0613910627563
345.0613681384727
345.0613497855795
345.0613301668777
345.0612769041963
345.0612537560096
345.0612351772491
345.0612156084965
345.0611366208162
345.0611079051479
345.0610839821124
345.0610601271398
273.0385903885149
273.0347479395003
273.0985905172926
273.2581391804169
273.238822024104
273.2234547094247
273.2436262817414
273.2913364000746
273.5384039498856
279.7172440967136
296.493722798722
306.1192909400079
318.2550957202338
331.8292285497776
340.6683709369859
344.0917145489844
345.1290651344593
345.3608133213065
345.3949798340768
273.018338018722
273.0200534222481
273.025474789453
273.0360969584483
273.053978219306
273.0785376914893
273.1049896475589
273.1297204604958
273.1502146727894
273.1700682817972
273.205206338689
273.4161030265611
283.5098322911392
307.3809903639099
327.8653189593227
339.190917358024
343.8143604622687
345.1397587593037
345.3787578968006
273.0341114598322
273.0347008575054
273.0377686122555
273.0425253817501
273.0490607183049
273.0573663188632
273.0673681361519
273.0791132595031
273.0931587507659
273.1110401251772
273.1358302118295
273.1749049376435
273.2658094140293
275.0182445614536
302.9208572110136
325.8032732745122
338.7014169361778
343.8950218540407
345.2333253108455
273.0811876679242
273.0805660820312
273.0813849474811
273.0828366385471
273.0844443628185
273.0860107859785
273.0884537522677
273.0923750214592
273.0983613973378
273.1073731193188
273.1217875440844
273.1443595872932
273.1806191508362
273.2522559516773
274.5078880951976
308.5102099756153
330.6698096997428
341.1522178349638
344.7646756979171
273.1720624362981
273.1634776752074
273.1568711950762
273.1538824258002
273.1440231660426
273.1320586721823
273.1253351732414
273.1217338481007
273.1209555305409
273.1234574160015
273.1297657033526
273.1413064485854
273.1609501021489
273.1947958157308
273.2649421211804
275.8265509559604
314.9983010930837
335.2174720996865
343.5464741228842
273.7354316982257
273.6654831139053
273.6812137637161
273.8864612897373
274.79228771516
275.7298022510188
274.5413252181534
273.1974036843972
273.1536356158771
273.1445951540716
273.1479026569859
273.1555614714238
273.1682728982016
273.1918704054685
273.2344556570068
273.3457603001174
283.9889709729382
321.697972583219
340.0879061321184
310.4340191162236
311.0343908173317
311.4538742372035
310.9196042055672
308.4589112646977
303.4892859249721
296.322693612571
288.7134424183073
282.9415478768374
278.7060330065867
274.394596524856
273.1993926216063
273.1971172439877
273.2086550791474
273.2369082760375
273.2946489108326
273.6340808185585
305.7107075159373
333.6927422839495
334.4364013419647
335.5848075502499
336.0460949949301
335.6813071382468
334.288071707046
331.5890179795393
327.3858939139387
321.8875014533301
314.4793431950351
304.2139754583413
292.5331247132692
280.0893156989024
273.2713564843708
273.2551790630507
273.268201412689
273.3116666080809
273.4259611941806
275.1281926779244
322.8104669051201
341.4075389936417
341.7297658794394
341.6114284587732
341.1479896208453