/*--------------------------------*- C++ -*----------------------------------*\
| =========                 |                                                 |
| \\      /  F ield         | OpenFOAM: The Open Source CFD Toolbox           |
|  \\    /   O peration     | Version:  2206                                  |
|   \\  /    A nd           | Website:  www.openfoam.com                      |
|    \\/     M anipulation  |                                                 |
\*---------------------------------------------------------------------------*/
FoamFile
{
    version     2.0;
    format      ascii;
    arch        "LSB;label=32;scalar=64";
    class       volScalarField;
    location    "0.35";
    object      T.water;
}
// * * * * * * * * * * * * * * * * * * * * * * * * * * * * * * * * * * * * * //

dimensions      [0 0 0 1 0 0 0];

internalField   nonuniform List<scalar> 
2268
(
272.9999579231674
272.9999571129512
272.999956800391
272.9999563926129
272.9999559304596
272.9999554846982
272.9999550880328
272.9999547635756
272.9999545419885
272.9999544643827
272.9999545826353
272.9999549620103
272.9999557024447
272.9999570170357
272.9999594273688
272.9999641280281
272.9999731669338
272.9999936342571
273.0000439301755
273.0001768354281
273.0005745534837
273.0021090702606
273.0125895450628
272.9999220097217
272.9999213585804
272.9999211288742
272.9999208421287
272.9999205205736
272.9999202164012
272.9999199592124
272.9999197665634
272.9999196502305
272.9999196147105
272.9999196580487
272.9999197847804
272.999920078637
272.9999209001782
272.9999232564969
272.9999294169389
272.9999436767337
272.9999749191072
273.0000435819022
273.0002027413312
273.0006261906829
273.0021419121608
273.0122988858706
272.9999236086346
272.9999246283625
272.9999259883066
272.9999276596724
272.9999294860687
272.9999314056273
272.999933398374
272.9999353955658
272.9999372279632
272.9999385913058
272.9999390313691
272.9999379805645
272.999934990203
272.9999302574375
272.9999254261267
272.999924601489
272.9999388894728
272.9999789553696
273.0000666958039
273.0002536761748
273.000701596551
273.0021845084715
273.0119198352727
273.0000532626348
273.0000602868695
273.0000682259108
273.0000774469437
273.0000874328616
273.0000979338366
273.000108806368
273.0001197059478
273.0001298699679
273.0001379477871
273.0001418931712
273.0001390214574
273.0001266141104
273.0001031727201
273.0000700398863
273.0000335847822
273.0000222759278
273.0000507839061
273.0001414965697
273.0003426962358
273.0008007473849
273.0022267896543
273.0114396056651
273.0005063675491
273.0005291105269
273.0005554196932
273.0005850248135
273.0006171105235
273.0006513274322
273.0006873696953
273.0007243360176
273.0007601204613
273.0007908527067
273.0008104951199
273.0008108679044
273.0007829415752
273.000719414261
273.000617251914
273.0004814914217
273.0003742514635
273.0003265361308
273.0003621229804
273.0005266227761
273.000950645634
273.0022759734927
273.0108566834253
273.0016196015196
273.0016754855345
273.0017417039242
273.0018152723883
273.001895684425
273.0019829199295
273.0020766644166
273.0021752291898
273.0022741126642
273.0023645704171
273.0024325613267
273.0024586788354
273.0024205395072
273.0022977413618
273.0020742320588
273.0017402573121
273.001395502146
273.0011246427723
273.0009600632667
273.0009542398817
273.0012314804049
273.0023654400094
273.0101779748591
273.0038679580285
273.0039823227617
273.0041200243398
273.0042737159983
273.0044441084923
273.004632392344
273.0048387916877
273.0050608532804
273.0052904138134
273.0055105766144
273.0056936073337
273.005800936929
273.0057871606043
273.005610395978
273.0052325407017
273.0046035757728
273.0038099225303
273.0030623814968
273.0024158821785
273.0019562809669
273.0018356683178
273.0025841837613
273.0094294610942
273.0078034431834
273.00800647247
273.0082535750938
273.0085352914066
273.0088532541013
273.0092112373893
273.0096109842004
273.0100495797055
273.0105135448068
273.010973355382
273.0113802299388
273.0116670897211
273.0117546870259
273.0115766289488
273.0110810438268
273.0101537388838
273.0087009679925
273.0071546298622
273.0055944902561
273.0041823734899
273.0031763328357
273.003141953434
273.0086892605451
345.373802853662
345.3739503400338
345.3742691563662
345.3746635844304
345.3750604133713
345.3749639603499
345.373648603119
345.373502933864
345.3753536265719
345.378321433834
345.381438041919
345.3841473680892
345.3864366279936
345.3884660237097
345.3902941820062
345.3918740377451
345.3931229970294
345.3939750519629
345.3944244307929
345.3737585969195
345.3738263892128
345.3741984201839
345.3742199501889
345.3719414359653
345.3584133838428
345.3270711478089
345.3140235084052
345.3228435576515
345.3427715959751
345.3632578177838
345.3772355174366
345.3844921512941
345.3880468040099
345.3902150659436
345.3918728920011
345.3931507617427
345.3940189223056
345.3944823289148
345.3735591015155
345.369074173276
345.3738254094753
345.3698597805856
345.3409272847927
345.2092164396046
344.9866035585723
344.9241751218364
344.9816876709127
345.0995671980291
345.2288178246447
345.3215442829112
345.3677372800445
345.3844785168086
345.3896777917155
345.3918888629565
345.3932660523066
345.3941549637879
345.3946288466886
345.356078926096
345.2173908825632
345.374135670151
345.3382325112652
345.134513746004
344.337310713027
343.4331544583912
343.3386983059448
343.5940571014794
344.0483965755952
344.5918437823303
345.0270343967148
345.2686399201157
345.3610222020623
345.3855220582261
345.3914112339821
345.3933997150882
345.3943746182246
345.3948630376784
345.2325272955774
342.8651319987364
345.4160623194897
345.1869245362091
344.2050728608447
340.7637828055925
338.5981893363642
338.8676092521371
339.6683966880555
340.8819088521965
342.468426882856
343.9118970669829
344.8394602179633
345.2460499191264
345.362604897164
345.3878172301391
345.393203553414
345.3946459033349
345.395182708702
341.1165244398188
327.3991486416364
345.2649472076898
344.4173569380689
341.6635854989408
330.4218658717141
327.86933824943
329.4197098034901
331.3705537915006
333.8663718721292
337.2499596577368
340.7496077857796
343.4130916453976
344.8041057958388
345.2631295007171
345.3698798163327
345.3910411226858
345.3948069244166
345.3955777196136
350.0923076636749
293.2891685801447
339.4514428430616
349.7716536838603
335.6496089585851
311.6636811616997
310.2824051482932
313.4085513541774
317.3632763205041
321.914431447718
327.5353776758575
333.8882260104117
339.6887030851879
343.4324912513378
344.9086963809237
345.2979519562637
345.3804936899928
345.3941646683452
345.3959998521013
307.7455688825342
273.8037152852596
273.817911751965
275.1508078140949
296.5202625451478
291.3391842057111
289.2140338472253
292.1967994917433
297.3498963894055
305.1934420279979
313.5051581483403
322.3540429324702
331.9659820867547
339.9238281092343
343.8402747352005
345.0490419903725
345.3388184431286
345.3901397454661
345.3963513985457
273.0139520149926
273.0142744001953
273.0146676318656
273.0151347954145
273.01567156713
273.0162868283331
273.0169846850361
273.0177618510912
273.0185965378398
273.0194399064932
273.0202131099704
273.0208112568312
273.0211116012015
273.0210379059244
273.0205967119551
273.0197090650867
273.0178972157677
273.0160531566905
273.0139604287128
273.011579353113
273.0090717985559
273.0069914916054
273.0084437995197
273.0303690763925
273.0309228671944
273.0316819388307
273.0326114340652
273.0336990829518
273.0349742706917
273.0364354245308
273.0380742959114
273.039839375259
273.0416216660834
273.0432619956182
273.0445600898047
273.0452724552279
273.0453215938956
273.0449990019554
273.0445955288073
273.043615416454
273.040651537212
273.0365251472054
273.0313127980704
273.0254495104252
273.0197918404928
273.0162410494283
273.0554739725858
273.0562286015535
273.0575141542019
273.0590881940441
273.0609387089585
273.063145572451
273.0656342778053
273.0683901814778
273.0713066981381
273.074175573639
273.0767515251022
273.0787249794557
273.0796277501814
273.0793371893423
273.0786622161233
273.0790765978726
273.0813997217791
273.0818929617838
273.0795262299247
273.0733210522015
273.0640513938471
273.0533560571113
273.0432636162334
273.0880682491802
273.0890315812888
273.0909661644464
273.0930777096104
273.0955422050313
273.0985558437298
273.1017859238795
273.1053386259455
273.1091478381491
273.1129979761777
273.1167616302374
273.1201537731995
273.1222676928857
273.1224285762538
273.1193649768896
273.1178084660661
273.1259672398636
273.1403636387171
273.1486387297649
273.148186942162
273.1393034608852
273.1243587484446
273.1073942786467
273.1244847378067
273.1260325739052
273.1289567348442
273.1317415372892
273.1356654812026
273.1414248871613
273.1488405854512
273.1592284658962
273.1740905490495
273.1954938800235
273.2273979948498
273.2756441222476
273.3465700179149
273.4548708304375
273.6991041012975
273.6654293203542
273.3919166107808
273.393374462295
273.4046755405802
273.3792336067217
273.3261940163729
273.2703526843424
273.2296052019047
280.7158394167316
280.9573798517186
281.5819009593177
282.5427362950554
283.9184399019787
285.5067826226229
287.5222072885095
289.7561852432401
292.0536416791567
294.2467804621583
296.1746290244672
297.5421788616389
297.6481748981954
295.8001325711464
292.1060139858877
288.3308396782591
288.4773618993744
292.7822018027183
297.5615864663192
301.1133659562304
300.8655580997495
300.181954126637
277.5054265357334
305.611322956371
306.8790816566743
308.0750020579593
309.2926965988949
311.071136203784
313.2136175287233
315.4717842147996
317.6827040952489
319.5892604107307
321.0499670560696
321.8996593994297
321.9653218779355
320.5565941393156
316.8212662350755
311.3736614908062
306.7440149484582
304.8236519698522
305.3780319623768
307.2746612413675
309.6294472190922
311.3767578589106
311.7813396024559
311.5468919587088
324.9900207519325
326.3931278998894
327.5981128376449
328.8679072858373
330.3675607318844
332.0179977770342
333.5727762757875
334.8463369233519
335.699198987495
336.0775875575534
335.9330289581748
335.23537842112
333.6785121333673
330.8805132934799
326.9274516494044
322.7910995664245
319.6942634465495
318.2394169096944
318.5486602010859
320.4500705510821
323.3326492729476
326.3629152728882
329.0065413408889
336.5163776542621
337.748513904175
338.4966868644074
339.2786249488609
340.1529162893539
341.0131222334403
341.7002284861755
342.0681463012551
342.0398673906362
341.6224371041936
340.8291315236517
339.7754853580898
338.4113871147999
336.6005260191191
334.2929840965328
331.7129102849299
329.4351493971191
328.1712777589406
328.3832530059075
330.0906034026672
332.7527145630555
335.4810097669959
337.7921443960321
342.2031473481699
342.8540919394882
343.2420951000622
343.6060974231879
343.9640781683005
344.2346263131594
344.3026893051418
344.0671039633694
343.478415317196
342.5680597829877
341.3496978529158
340.0698547365244
338.5844093436913
336.8090866216957
334.8727866948108
333.0535828583694
331.8796540287152
331.9159164754657
333.3553635906325
335.8178038419935
338.3858917136514
340.4222591446859
341.8150732991232
344.4487367173958
344.6905621202213
344.8114964789311
344.9124250602405
344.979069300296
344.9458931934983
344.7091424607182
344.1675723888872
343.2876784847653
342.1344699025283
340.7528053603135
339.3360791181582
337.5611738773515
335.5577239256078
334.02458455039
333.2955236377338
333.8922611067666
335.8788869243098
338.5807461388319
340.9705849412323
342.6054438781285
343.5695167768796
344.0670751132388
345.0792620754042
345.1170690340272
345.131413420112
345.1291904969987
345.0890567579874
344.9466399817628
344.5912925610684
343.9274616851354
342.9607618584659
341.8045688847059
340.5105646161674
339.1446569415365
337.3653750202176
335.8958523528029
335.7928147269303
336.9401279523124
339.3059278539765
341.7310559020201
343.3731183612896
344.2366055675154
344.6243195075438
344.7812492816618
344.7877549699874
345.1440417154984
345.1309589078456
345.1182310368524
345.0956396318116
345.0359818283788
344.8705201747197
344.4911787656008
343.8342678677064
342.967307207997
342.0416298969645
341.1135319363498
340.1861055517891
339.1832450327182
339.2959398016407
341.1390833148346
342.9901269455421
344.2995624361229
344.8523534142639
344.9938078802667
345.0055489056485
344.9934131979775
344.967300773717
344.8704495587806
345.0981755523559
345.0850862229058
345.0766096253169
345.0591240782125
345.0055214059851
344.8498712810884
344.5076267646652
343.9680837815739
343.3537018682624
342.8279208137135
342.4643117063687
342.2854197308469
342.4807844432891
343.6629865867407
345.2911603861933
345.3560094312257
345.1872554023419
345.0822018060003
345.0378690931754
345.027027801534
345.017999039873
344.9813665968501
344.8625011214691
345.0662476245333
345.0625810129434
345.0597603844078
345.0494586299737
345.0067414226247
344.8798606159844
344.622993184447
344.2728237856978
343.9662851565403
343.8405485508887
343.942286728144
344.2706134701476
344.8314992751229
345.3633844234386
345.3638776620211
345.0253882677565
345.0148272216342
345.03676901245
345.0462955272149
345.0472473930566
345.0326877624448
344.98345601757
344.8502453557243
345.0587479998239
345.0593382469962
345.0591838089615
345.053232236142
345.0243942626126
344.9436850750282
344.797478457225
344.6287682145422
344.5328505936934
344.5850730485498
344.7745809378596
345.0090211072065
345.1527426327036
345.1070901834285
345.0020605267821
345.0494041917283
345.0616925846883
345.0629650237854
345.0596222808244
345.0539313182626
345.0357522102774
344.9828757885651
344.8445871584554
345.0609836536468
345.0621452443493
345.0625199784236
345.0600282172734
345.0469942249467
345.0113559101643
344.9491727098867
344.8829237472386
344.857937073917
344.9027258160493
344.9914553867346
345.0615392173094
345.0788112275114
345.073605380926
345.0749725401423
345.0597935783942
345.062770369362
345.0626758542011
345.0605938511725
345.0554775137754
345.0381715395001
344.9871165553918
344.8520522849628
345.0637427569241
345.0641482487414
345.0643818211029
345.0642146475042
345.0618740901779
345.0532700909578
345.0350809906541
345.0126921353349
345.0022555455179
345.0166534358418
345.0486498268809
345.0756719035379
345.0823714961192
345.071717415187
345.0599893241126
345.062068614188
345.0639208725433
345.063081579624
345.0614113491544
345.0568375182321
345.0416081332616
344.9962349352124
344.8742442381377
345.0643745147357
345.0642960529834
345.0644150424421
345.0650963795162
345.066779778469
345.068684822225
345.0685263546392
345.0653475785422
345.0626329161733
345.0654650681285
345.0729289682639
345.0769982571376
345.0725530569409
345.0650622167148
345.0623847266916
345.0631762772222
345.0637840180784
345.0630492267872
345.0618278335348
345.0580832477504
345.0457091299718
345.0084801806491
344.9076077278755
345.0638301254326
345.0637517161005
345.06385083942
345.0644158985465
345.0661440398583
345.069458283386
345.0736442427201
345.0769392710208
345.0780807579783
345.0773345815426
345.0752903080564
345.0717150528967
345.0670557492022
345.0635871161818
345.0628606280385
345.0635474716208
345.0635788951581
345.0630611225263
345.0622180863845
345.0595741641521
345.050886538666
345.0245357355507
344.9524017990825
345.0633915657282
345.0634365916715
345.063528123542
345.0637562110765
345.064456038171
345.0660997433232
345.068793512103
345.0717047630342
345.0733333991471
345.0727030333407
345.0701701342037
345.0669929155333
345.0644579919967
345.0633186936852
345.0633555110724
345.063573157682
345.0634106416639
345.0630634383513
345.0625195795445
345.0609174181212
345.0557447448223
345.039858908282
344.9954242236627
345.0633621340501
345.0634359804598
345.0635040782981
345.0635483371142
345.0636254637516
345.0639161069274
345.0646288891327
345.0657083230175
345.0666383082115
345.066754396173
345.0658932671054
345.0646243471696
345.063721071081
345.0634628780944
345.0635264841146
345.0634936130838
345.0632889548941
345.0630381299871
345.0626838221189
345.0618096252834
345.0591461174416
345.0509273871547
345.0273470607123
345.063427388456
345.0634660717328
345.0635108894681
345.0635243179026
345.0634982236074
345.0634505474883
345.0634449712819
345.0635615543152
345.0637909440998
345.0639811570798
345.0639758590169
345.0638049546291
345.0636445261792
345.0635814521104
345.0635287720255
345.0633934024102
345.0631974665447
345.062988453227
345.0627317758889
345.0622573219597
345.0610108617928
345.0572854051353
345.046440856615
345.0633730884979
345.06339341528
345.0634318367574
345.0634572631106
345.0634729887386
345.0634812381821
345.0634789931254
345.0634743971414
345.0634940217863
345.0635536255181
345.0636277305565
345.0636693125396
345.0636535914551
345.0635830560536
345.0634638787284
345.0633038391769
345.0631204283017
345.0629270501626
345.0627144039352
345.0624241679613
345.0618430067221
345.0602926013465
345.0558562121509
345.0632753264413
345.0632989193103
345.0633388673705
345.0633703120717
345.0633972723589
345.0634313803495
345.0634782249718
345.0635314411043
345.0635806762485
345.0636204054273
345.0636460251453
345.0636454828834
345.0636032707557
345.0635134259148
345.0633833575753
345.0632253486747
345.0630494701881
345.0628634807986
345.0626703722973
345.0624538283693
345.0621398905428
345.0614920088943
345.0598255163623
345.0632238104346
345.0632435775313
345.0632789267271
345.0633079104251
345.0633309132047
345.0633578616312
345.0633988552797
345.063454232937
345.0635129464672
345.0635590651061
345.0635791936396
345.0635651940192
345.0635133955946
345.063423977383
345.0633007931203
345.0631503691513
345.0629810204406
345.0628021430639
345.0626206341356
345.0624332826756
345.0622150319433
345.0618906124849
345.0612487332324
345.0631790523323
345.0631895664978
345.0632165661572
345.063238675068
345.0632544848939
345.0632709084102
345.0632978527095
345.0633395906372
345.0633901458572
345.0634356578688
345.0634607836936
345.0634542630075
345.0634108688831
345.0633303933033
345.0632160724896
345.0630739973523
345.0629129870041
345.0627431469364
345.062572040054
345.0623999054934
345.062216561245
345.0619979320094
345.0616900182961
345.063115066284
345.0631215826124
345.0631433922067
345.0631623258043
345.063175753465
345.063188016453
345.0632070588472
345.063237744144
345.0632775110224
345.0633165612041
345.0633414924694
345.0633400215235
345.0633044337825
345.0632326071997
345.0631272101082
345.062994548224
345.0628436637858
345.062684626543
345.0625249212108
345.0623654879212
345.0622000626509
345.0620187682624
345.0618126821164
345.0630622284746
345.063063823192
345.0630797045894
345.0630938032882
345.0631026647785
345.0631087783354
345.0631192068934
345.0631397288276
345.0631698604065
345.0632020007422
345.0632242302716
345.063224549816
345.0631944053919
345.0631303781529
345.063034137388
345.0629115735941
345.062771656208
345.0626243847879
345.0624771266365
345.0623309023989
345.0621803000254
345.0620187191964
345.0618481192984
345.0630056807055
345.0630036271892
345.0630144998567
345.063024240055
345.0630290275059
345.0630299039145
345.0630327168857
345.0630435309581
345.0630637580782
345.0630882369364
345.0631067832043
345.0631078446651
345.0630822144742
345.0630253426013
345.0629379174566
345.0628252992804
345.0626962779481
345.0625608125989
345.0624263122762
345.0622939326169
345.0621584128151
345.0620134663147
345.061862514314
345.0629496187614
345.0629449381292
345.0629517640333
345.0629577003294
345.0629586780539
345.0629546090386
345.0629503018949
345.0629519228044
345.0629623612022
345.0629786215352
345.0629923529345
345.0629927868913
345.0629703790743
345.0629195917946
345.0628401003231
345.0627366075859
345.0626176328811
345.0624931373653
345.0623707720953
345.0622520772004
345.0621319317826
345.0620035654864
345.0618693677953
345.0628929071799
345.0628866923553
345.0628905878302
345.0628935203793
345.0628912804964
345.0628829342366
345.0628723760624
345.0628656902846
345.062866893601
345.0628748888628
345.0628831180639
345.0628817792776
345.0628612645202
345.0628152513789
345.0627424407032
345.0626467902616
345.0625364520847
345.0624214074885
345.062309730473
345.0622036373057
345.062098382372
345.0619866020703
345.0618688579375
345.0628354894047
345.0628288023177
345.0628309208611
345.0628317870907
345.0628270696034
345.0628151976728
345.0627992957819
345.0627852810493
345.0627780218883
345.0627780329865
345.0627804248849
345.0627764390569
345.0627566089262
345.062714023753
345.0626464910824
345.0625571738593
345.062453766921
345.0623462501727
345.0622432237797
345.0621478133078
345.0620559432402
345.0619598164063
345.0618580308169
345.0627771729056
345.062770981594
345.062772394395
345.0627721271616
345.0627657094392
345.0627510893919
345.0627307558307
345.0627104165739
345.062695573981
345.0626880949533
345.0626846030381
345.0626773967357
345.0626572856247
345.0626169256714
345.0625533138144
345.0624687982728
345.062370548336
345.0622684982412
345.0621718147989
345.0620846928178
345.0620040306903
345.0619219155252
345.0618350015058
345.0627178130198
345.0627129279089
345.0627145362357
345.0627139430704
345.0627065242703
345.0626898602989
345.0626659286744
345.0626402205892
345.0626187011894
345.0626043528513
345.0625951362183
345.0625843710267
345.0625632307459
345.0625240605714
345.0624631307441
345.0623819919163
345.0622872398779
345.062188693583
345.0620960298513
345.062014546232
345.061942331391
345.0618717565812
345.0617979693541
345.0626572943516
345.062654323361
345.0626567746162
345.0626564447289
345.0626485405969
345.0626303755481
345.0626035334452
345.0625733124853
345.0625460172394
345.062525522266
345.0625109238084
345.0624964680382
345.0624737238924
345.0624348454339
345.0623754945361
345.0622964779575
345.0622037967255
345.0621070773193
345.0620164048514
345.0619381264713
345.0618716411573
345.0618099623096
345.0617470963089
345.0625955489191
345.0625948374362
345.062598467501
345.0625986828282
345.0625905454143
345.0625711898908
345.0625419192748
345.0625078796149
345.0624756214569
345.0624497068914
345.0624301426805
345.0624119604818
345.0623871191563
345.0623476885896
345.0622888741664
345.0622108572186
345.0621190665092
345.0620228485786
345.061932528425
345.0618553282284
345.0617919384432
345.0617363232965
345.061682016385
345.062532534086
345.0625341085445
345.0625388745302
345.0625395569673
345.0625311211579
345.0625106232503
345.0624791882868
345.0624418622574
345.0624053638617
345.0623747516087
345.0623507011616
345.0623288484439
345.0623014932571
345.0622607165867
345.0622014561016
345.0621234456303
345.0620316323509
345.0619350364527
345.0618440415402
345.061766504969
345.06170425594
345.0616523166795
345.0616040903499
345.0624682154238
345.0624716679428
345.0624770808517
345.0624777250194
345.0624685824438
345.0624467356317
345.0624132421316
345.0623730721101
345.0623330142778
345.0622983987296
345.0622703002609
345.0622447456194
345.0622143134517
345.0621712208288
345.0621103936292
345.0620313967832
345.0619388595793
345.0618414353794
345.0617493256178
345.0616706673961
345.0616081342252
345.0615578064723
345.061513447155
345.0624022442486
345.0624066951581
345.0624117201564
345.0624113375614
345.0624007351176
345.0623771975025
345.0623417921327
345.062299352516
345.0622565244065
345.0622185942589
345.0621867285207
345.0621571719981
345.0621228168217
345.0620762402101
345.0620126966811
345.0619319051589
345.061838361648
345.0617403129001
345.0616475010236
345.0615679067649
345.0615046122749
345.061454494461
345.0614117209277
345.0623328068153
345.062337232486
345.0623401972575
345.062337177474
345.0623240509659
345.0622986006976
345.0622619269901
345.0622184139092
345.0621739806712
345.062133253245
345.0620971257642
345.0620621212636
345.062021915713
345.061970132878
345.061902964613
345.0618206058663
345.0617273216866
345.0616304688922
345.0615386149559
345.0614588694707
345.0613942327398
345.0613422760752
345.0612979315526
345.0622552516775
345.0622580066375
345.062256383551
345.062248404554
345.062231518906
345.0622046194567
345.0621687448401
345.0621269172698
345.0620828857726
345.0620392921303
345.0619963029425
345.0619515244684
345.0619012257048
345.0618420977888
345.0617725834942
345.0616933452017
345.0616070824965
345.0615181007016
345.0614316186404
345.0613524773556
345.0612833542788
345.0612231266466
345.0611683912973
273.0090065063162
273.0095890866313
273.0102898015081
273.0111769244019
273.0154978778053
273.0152222709154
273.0152195486976
273.0154124075756
273.0399163838728
273.0376425446546
273.0360794110971
273.0349990948201
273.1006409936875
273.0950249194527
273.090433861249
273.0866785674044
273.2155825231041
273.203424702384
273.1928102762242
273.1833009850326
275.8538613038883
274.7452049924118
274.1668786178981
273.9206150944437
311.4127512030754
310.6797991141192
310.0675238080231
309.9926116943623
330.0959870348339
331.0517026104938
331.9591597375437
332.7922821763982
338.7089742274453
339.4565721463708
340.0919558346261
340.622868699766
342.3102211941179
342.6749790841658
342.9470664562488
343.1595749797611
344.2154522677764
344.3023391833599
344.3303625967425
344.3435455450689
344.7652017389163
344.7131620037306
344.6016670043851
344.4738080485515
344.7994703177562
344.6789273239896
344.4670425368757
344.1889678561523
344.7509260751558
344.5527799444224
344.2307168232998
343.7740106358906
344.6821690269622
344.4023741922422
343.9814487559324
343.3676641549508
344.6161453679018
344.2831725139042
343.8044225203687
343.1030993984498
344.5837947971534
344.2456991574439
343.760122092763
343.0557725154487
344.6066629113132
344.302838114327
343.8562756059914
343.2180172605952
344.6809747701103
344.4288906337039
344.0553333432784
343.5211299717537
344.7873544946052
344.6020753162128
344.3253341891099
343.9264765952681
344.890799308619
344.7706580476954
344.5880324927215
344.3204144024432
344.9697874190124
344.9015478855028
344.7952338471561
344.63570796798
345.0189749277382
344.9851087665875
344.9305393481879
344.845779145134
345.0443136410175
345.029578144171
345.0050417760822
344.9655607471846
345.0555072928948
345.0498542825187
345.0401275594031
345.0238896247287
345.0597355831478
345.0577848356238
345.0543526198235
345.048438512172
345.061127918783
345.06048605564
345.0593699326216
345.0574205485129
345.0615398619822
345.0613033733031
345.060930328693
345.0603037902605
345.0616628772256
345.0615415442827
345.061383659557
345.0611511643626
345.0617112035424
345.0616235346379
345.0615261645466
345.061403229425
345.0617395236368
345.0616655853441
345.0615891438396
345.0614998529538
345.0617576374917
345.0616929224418
345.0616283082577
345.0615547941509
345.0617644028
345.0617078604197
345.0616528335572
345.0615908491121
345.061757636744
345.0617084889723
345.0616619710144
345.0616099791531
345.0617354943238
345.0616931572927
345.0616541956825
345.0616109527988
345.0616974377436
345.0616609657284
345.0616284997412
345.0615927661861
345.0616433500203
345.0616119707326
345.0615848934716
345.0615553091654
345.0615738933258
345.0615464720267
345.0615235969408
345.061498802158
345.0614895940647
345.0614651233899
345.061445198016
345.0614237318358
345.0613912472788
345.0613683225091
345.0613499691284
345.0613303499555
345.0612770887242
345.0612539400539
345.0612353608052
345.0612157915828
345.0611368053514
345.0611080891978
345.0610841656746
345.0610603102295
273.0385903928215
273.0347479387258
273.0985905297103
273.2581392052385
273.2388220464102
273.2234547299929
273.2436263062117
273.2913364146001
273.5384039498676
279.71724407512
296.4937227973752
306.1192909394027
318.2550957204394
331.8292285503512
340.6683709371522
344.0917145490102
345.1290651344633
345.3608134775375
345.3949799396156
273.0183380188851
273.0200534226971
273.0254747912892
273.036096962233
273.0539782262132
273.0785377016589
273.1049896595945
273.1297204733896
273.1502146875011
273.1700683010059
273.2052063604856
273.4161030265392
283.5098322779926
307.3809903624822
327.8653189600133
339.1909173582799
343.8143604623043
345.1397587593073
345.3787580027773
273.0341114600773
273.0347008577779
273.0377686123718
273.0425253819456
273.0490607189785
273.0573663204127
273.067368138848
273.0791132635497
273.0931587564817
273.111040133217
273.1358302232942
273.1749049585489
273.2658094388497
275.0182445546765
302.9208572085423
325.8032732752301
338.7014169364824
343.8950218540759
345.2333256347757
273.0811876668939
273.0805660801284
273.08138494457
273.0828366347257
273.084444358902
273.0860107825839
273.0884537498364
273.0923750203696
273.0983613979145
273.107373122023
273.1217875500424
273.1443595975191
273.1806191670715
273.2522559678579
274.5078880915834
308.5102099734518
330.6698097004631
341.1522178351133
344.7646756979265
273.1720624276354
273.1634776627528
273.156871179234
273.1538824022336
273.1440231576341
273.1320586656137
273.1253351696977
273.1217338430367
273.1209555276736
273.1234574150595
273.1297657046737
273.1413064528599
273.1609501105487
273.194795830034
273.264942137847
275.8265509385549
314.9983010930119
335.2174721002268
343.5464741229306
273.7354314585707
273.6654828148432
273.6812137637119
273.8864612897007
274.7922877149729
275.7298022507798
274.5413252178764
273.1974035252537
273.1536355954535
273.1445951482371
273.1479026584103
273.1555614720765
273.1682729020168
273.1918704149734
273.2344556742366
273.3457602251702
283.9889709524508
321.6979725840048
340.0879061324021
310.4340191161803
311.0343908172791
311.4538742371342
310.9196042054447
308.4589112644214
303.4892859243217
296.3226936114109
288.7134424169275
282.9415478760777
278.7060330059251
274.3945965229876
273.1993926163402
273.1971172401755
273.2086550815135
273.2369082866469
273.2946489328605
273.6340808185431
305.710707511655
333.6927422849079
334.4364013419633
335.5848075502504
336.0460949949368
335.6813071382714
334.2880717071052
331.589017979645
327.3858939140554
321.8875014533828
314.4793431948364
304.2139754574345
292.5331247114577
280.089315697174
273.2713564058253
273.2551790556871
273.2682014165346
273.3116666245518
273.4259611879968
275.1281926738906
322.8104669059058
341.407539021993
341.7297657567517
341.6114284587722
341.1479896208459