/*--------------------------------*- C++ -*----------------------------------*\
| =========                 |                                                 |
| \\      /  F ield         | OpenFOAM: The Open Source CFD Toolbox           |
|  \\    /   O peration     | Version:  2206                                  |
|   \\  /    A nd           | Website:  www.openfoam.com                      |
|    \\/     M anipulation  |                                                 |
\*---------------------------------------------------------------------------*/
FoamFile
{
    version     2.0;
    format      ascii;
    arch        "LSB;label=32;scalar=64";
    class       volVectorField;
    location    "0.35";
    object      U;
}
// * * * * * * * * * * * * * * * * * * * * * * * * * * * * * * * * * * * * * //

dimensions      [0 1 -1 0 0 0 0];

internalField   nonuniform List<vector> 
2268
(
(0.02936415851285277 -0.01312339564358658 0)
(0.06569516271302663 -0.01314282490952492 0)
(0.1131513124911129 -0.01288738506773275 0)
(0.1586673558105929 -0.01272493322448944 -8.797915662711844e-25)
(0.2031716558457364 -0.01252466621306595 -1.766906400061442e-24)
(0.2468772674974233 -0.01222147320750165 -8.933196622575432e-25)
(0.2895301520312853 -0.01182689976553065 -9.012149198649937e-25)
(0.3307196912386114 -0.01133956456113933 -1.816185302048032e-24)
(0.3700052857680747 -0.01074079229698555 -1.8326673556e-24)
(0.4068884199802071 -0.01000574820561532 -9.267880382249405e-25)
(0.4407688434762028 -0.00910568904310605 0)
(0.4709163854433374 -0.008006469898187183 0)
(0.4964437701577051 -0.006666441912575529 0)
(0.5162669821266853 -0.005032494019627055 0)
(0.5290457949473865 -0.003029448148815975 0)
(0.5331341564072266 -0.000530621972480886 1.191419368441799e-24)
(0.526562473964192 0.002351671102567716 1.294557941575247e-24)
(0.506641463450254 0.006117822055898359 1.457495443628179e-24)
(0.4701320889346011 0.01113732316540336 3.222558843338838e-24)
(0.4130978755091434 0.01772736393662754 1.615730064902637e-24)
(0.3331473600427959 0.02588956070551427 0)
(0.2099005060406416 0.03602385233453819 0)
(0.1043590252252144 0.04542303276061649 0)
(0.02948541007765726 -0.0313754540250979 0)
(0.06647617318319259 -0.03143539732341414 0)
(0.114432209445862 -0.03110292533421772 0)
(0.1603680077880409 -0.03087603218091137 -2.133489938488189e-24)
(0.2053257421599911 -0.03048357764374995 -4.29876329994653e-24)
(0.2495049480414349 -0.02981630171067122 -2.18221322010192e-24)
(0.2926364802361354 -0.02889569622527807 -2.215684353933649e-24)
(0.3343238147148313 -0.02770790911049578 -4.504890267067293e-24)
(0.374139303407432 -0.0261999338952765 -4.596623357783785e-24)
(0.4115940194266675 -0.02430232512422789 -2.355959216207607e-24)
(0.4460995949077803 -0.02193284926128184 0)
(0.4769432759132559 -0.01899170708798526 0)
(0.5032643399285889 -0.01535442670536565 0)
(0.524022939481215 -0.01086049680485526 0)
(0.5379606999371233 -0.005299495126500149 0)
(0.5433494794084126 0.001560849253394956 3.301927675637932e-24)
(0.5381418342985702 0.01016745531939728 3.806062880788203e-24)
(0.5197537191320175 0.02092633316788439 4.383338407925822e-24)
(0.4846518488782529 0.03437229893322761 1.01062754934674e-23)
(0.4283923576460342 0.05080127382339613 5.657822802675417e-24)
(0.34789338988749 0.06951445529406382 0)
(0.2212470218468273 0.08956468995777017 0)
(0.1097466350843114 0.1021326434392323 0)
(0.02904516431587402 -0.05433482547019452 0)
(0.06650538166697222 -0.0543481259559751 0)
(0.1145937233147311 -0.05392660293499924 0)
(0.1605865118048819 -0.05351928880229067 0)
(0.2056585342153698 -0.05281127180973708 0)
(0.2499784989192057 -0.05169245095937213 0)
(0.2932627887879413 -0.05016972144152098 0)
(0.3351319354090072 -0.04820433907414462 0)
(0.37517254983272 -0.04570921966590665 0)
(0.4129045345512938 -0.0425718503058338 0)
(0.4477486974736974 -0.03865805617305675 0)
(0.4790044661835423 -0.03380639298471119 0)
(0.5058275566305129 -0.02781879394032393 0)
(0.5271962421585215 -0.02044481388672791 0)
(0.5418383515522934 -0.01135908223668616 0)
(0.5482778053476408 -0.0001238632781691354 0)
(0.5446177217516569 0.01408352089180671 0)
(0.5281651217054665 0.03206289497096682 0)
(0.4955608218297181 0.05475089549962599 0)
(0.4420328697473165 0.08298801997654724 0)
(0.3637929383102805 0.1163817407296846 0)
(0.2366516660719738 0.153542108785147 0)
(0.1192233307139797 0.1806698177964964 0)
(0.02871271255899749 -0.07598808270377928 0)
(0.06673151313903372 -0.07603354671773264 0)
(0.1149771083811973 -0.07557273936666103 0)
(0.1610764936546264 -0.07496460397788152 0)
(0.2063265501252964 -0.07391256193565697 0)
(0.2508588671097865 -0.07232298130471594 0)
(0.2943815759271472 -0.07018281298119611 0)
(0.3365358339115885 -0.06742490370624249 0)
(0.3769258162978423 -0.0639282756290229 0)
(0.4150841283538952 -0.05953756443558827 0)
(0.4504449406934313 -0.05406591377862124 0)
(0.4823249736409162 -0.04728878125724223 0)
(0.5099047589792421 -0.03893146831056354 0)
(0.5322035657550078 -0.02864428660876985 0)
(0.5480510783842867 -0.01595458338770804 0)
(0.555902705856682 -0.0001518054537294955 0)
(0.5540310001498464 0.01932641582573637 0)
(0.5400300298095239 0.04391537765780877 0)
(0.5105076744777023 0.07511941411350376 0)
(0.4605009042248291 0.1145846409204013 0)
(0.3855691025342673 0.1628602811365962 0)
(0.2586617426830164 0.2189241596402981 0)
(0.1337096940770617 0.2651932344260099 0)
(0.02846236470338554 -0.09733965903932199 0)
(0.06707537762452195 -0.09752801163148818 0)
(0.1155206200387614 -0.09715437570184092 3.107765635568425e-23)
(0.1617939302568804 -0.09642906982134414 3.142230483853211e-23)
(0.2072946874875261 -0.09512459893307773 0)
(0.2521211418499903 -0.09316836025341682 3.296714346169192e-23)
(0.2959810878724695 -0.09052210648163884 0)
(0.3385384350640043 -0.08708806818037679 -3.531523465954024e-23)
(0.3794174383622799 -0.08271182541506134 0)
(0.4181671127203742 -0.07719679310658917 -3.867188423035081e-23)
(0.4542387771618575 -0.07030612183966996 -4.083987725716466e-23)
(0.4869702549272534 -0.06175705884306296 0)
(0.5155713735859329 -0.05120736130247443 0)
(0.5391052747483238 -0.03822567173156904 0)
(0.5564558347724301 -0.02223877052451613 0)
(0.5662208657160069 -0.002467897858084796 6.099012328993107e-23)
(0.5667725511823714 0.02223039394521368 6.958899912508095e-23)
(0.5559211742149275 0.05339610500678918 0)
(0.5304524712553781 0.09306598962495491 0)
(0.4852905508595609 0.1438429576795445 0)
(0.4152718059145853 0.2078668906681142 0)
(0.2898442838177454 0.2858377205094467 0)
(0.1551502283322113 0.359265984131266 0)
(0.02830723974386061 -0.1183794514888349 -5.058389376707006e-23)
(0.0675345435576936 -0.1186253861037286 -5.078834633509898e-23)
(0.1162160230824943 -0.1183091265195688 3.824539122885035e-23)
(0.1627349834247959 -0.1174177569909531 3.859987197033742e-23)
(0.2085575474190029 -0.1158365767112777 0)
(0.2537610001851093 -0.1135131132819732 4.023218256634829e-23)
(0.2980614874348761 -0.1103790552465787 0)
(0.341147066819291 -0.1063044111865606 1.432110575914715e-23)
(0.3826645404856456 -0.1011009844420103 5.975196644712711e-23)
(0.4221832756119968 -0.09453137211820453 -4.705704731983411e-23)
(0.4591756549458536 -0.08631000179464118 -4.975141902731466e-23)
(0.4930040524363307 -0.07609888161097073 0)
(0.5229109267003652 -0.06349450533375385 -1.137074005055832e-22)
(0.5480087127034059 -0.04799624343686639 -1.231513796035893e-22)
(0.5672652203671125 -0.02895080842054133 -8.994432530039799e-23)
(0.5794114258861669 -0.005467405442072042 -2.50160716357732e-23)
(0.5829081103334542 0.02385654556647356 8.543881984292653e-23)
(0.5759337951287427 0.06092626537923667 0)
(0.555586886775271 0.1083757085680364 0)
(0.5170026688004444 0.1700270577761815 0)
(0.4545390009560956 0.2504763741640855 0)
(0.3339352575240209 0.3543336189160325 0)
(0.1871195561688167 0.4691147418386832 0)
(0.02828118559695793 -0.1405531884890238 -6.674435231406801e-23)
(0.06815578465948703 -0.1406901584069483 -6.695757514186331e-23)
(0.1170898565994606 -0.1403314638188094 0)
(0.1639245817711247 -0.1391575283171276 0)
(0.2101290098285125 -0.1371997425584038 0)
(0.2557814994281074 -0.134427172289189 0)
(0.3006168934777554 -0.1307387094853821 0)
(0.3443483845029586 -0.1259711347883028 7.454809941697521e-23)
(0.3866477682383621 -0.1199017771070365 7.721426343123207e-23)
(0.4271087856726816 -0.11225185226129 0)
(0.4652288540334572 -0.1026866015540949 0)
(0.5003979273153907 -0.09081249052066187 0)
(0.53189172963501 -0.07616404489863886 -1.415762751183554e-22)
(0.5588665232136675 -0.05816783948416542 -1.518004166977037e-22)
(0.5803513771715701 -0.03607908327942599 -1.097730011644735e-22)
(0.5952792873893504 -0.008885146357723032 -1.20861310188297e-22)
(0.6022131348431374 0.02487377518807183 0)
(0.5998134030124489 0.06720078235687385 0)
(0.5857424096148302 0.1213224270988731 0)
(0.555886246896131 0.1925524717487883 0)
(0.5049740827560095 0.2890570094031226 0)
(0.396653168302179 0.4223767213901232 0)
(0.2356191120566588 0.6011345625711133 0)
(0.0284123439066688 -0.1666838449230151 0)
(0.06898913259521375 -0.166820062980134 0)
(0.1181766400427926 -0.1664597999238228 0)
(0.165410057153136 -0.1650699542473812 -8.384042765235213e-23)
(0.2120582539620086 -0.1627981401114511 -1.706668117104639e-22)
(0.2582320990174201 -0.1596275924844452 -8.713556721672622e-23)
(0.3036981202707544 -0.1554263529588788 -8.932399041960467e-23)
(0.348195452114017 -0.1499963683055151 -9.193583858189645e-23)
(0.3914234951834861 -0.1430769763617534 0)
(0.4330049865862393 -0.1343449066836662 0)
(0.472467930552331 -0.1234147840314047 0)
(0.5092365734407177 -0.1098400776453236 0)
(0.5426281191814154 -0.09310339415426534 1.140983641773007e-22)
(0.5718519995731594 -0.07257924804060893 1.21703209021557e-22)
(0.5960062795190293 -0.04746251581902543 1.314743973705714e-22)
(0.6141176913505918 -0.01667475295211755 2.886669603612369e-22)
(0.6247097140276819 0.02131103197642743 1.605757225813605e-22)
(0.6273088522394644 0.06883643701466437 1.837130919518288e-22)
(0.6204183084009105 0.1294570609788177 4.383763526952987e-22)
(0.6015522140467539 0.2097649489694842 2.817603704070657e-22)
(0.5675339591859714 0.3227365511041138 0)
(0.4864138294643464 0.4918817006722562 0)
(0.3098292216716658 0.8030153275975902 0)
(-0.08176966275287541 0.02306812819712101 0)
(-0.1201622424247898 0.003502783613982206 -7.485386886313296e-21)
(-0.1325808000170401 0.004356542204777904 -1.149901713830307e-20)
(-0.1845317249992771 0.01177026476578252 -5.714460127611519e-24)
(-0.2407641908971042 0.009568497145421536 -9.969412136143321e-21)
(-0.2679561785513067 0.000692298074103693 -1.239605854606746e-20)
(-0.2509242116441814 -0.010530134570025 0)
(-0.1879964645824756 -0.01927948615986217 0)
(-0.09172033941071213 -0.02501836755056313 -5.571023184385186e-20)
(0.02244693449249205 -0.02804063601887449 -1.936205696656666e-20)
(0.1434256973875386 -0.02826661102876115 3.850752093406016e-20)
(0.2617708231527515 -0.02519991667921871 3.681309267867548e-20)
(0.3621652193513141 -0.01894041786833791 3.400940844138875e-20)
(0.4293922515410395 -0.01013548408509741 0)
(0.4523518974946029 0.0002046752607288279 0)
(0.424460105722369 0.01147030650510128 3.109976946231854e-23)
(0.3456751799730637 0.02208616547581823 -3.037269654281386e-20)
(0.2229991072681186 0.03028634408382674 -1.902008691148486e-20)
(0.08719342133559538 0.03362849775397281 -6.508350997017404e-23)
(-0.1002327499561115 0.0699598897243755 0)
(-0.1447713154432695 0.00927252354676112 -7.591285162733898e-21)
(-0.1477204580827961 0.007344869253142336 -1.152146766640143e-20)
(-0.1991475246330252 0.0339947709981271 -1.640146323589249e-23)
(-0.2584057668591579 0.02727623758100171 -9.918443658306518e-21)
(-0.2851636920963049 0.001449279610183946 -1.238042599246672e-20)
(-0.2624888464137057 -0.03095053326678313 0)
(-0.1902044148387261 -0.05518465818615624 0)
(-0.08711085424487501 -0.07089516282519367 0)
(0.03268284522907901 -0.08000497150983905 3.870387992770881e-20)
(0.1603680755355627 -0.08257302614301303 3.846752305462892e-20)
(0.2864185535355517 -0.07583425610108903 3.677217660302436e-20)
(0.3950394386830192 -0.0591902342937896 3.40184851537236e-20)
(0.4697264791148853 -0.03328081282029373 0)
(0.4963476058866079 -0.001358022108488836 0)
(0.4670606402916014 0.03241836172272059 9.232311640513554e-23)
(0.3821900939231467 0.06291195538353878 -3.005351013160584e-20)
(0.248635958929452 0.08565371316225497 -1.895756924615727e-20)
(0.09863894068542746 0.09460264743724313 -1.873419393092082e-22)
(-0.1239762380051766 0.1317443635194846 0)
(-0.1710914365718072 0.0165198247623787 -3.948581175106459e-21)
(-0.1457671117287239 0.01732744395276029 -5.793978447021231e-21)
(-0.1958936315806543 0.05930717402908271 0)
(-0.2681007640359466 0.04743446398119099 0)
(-0.3010915288089536 0.001866560029593181 0)
(-0.2736349289793654 -0.05573862406062431 0)
(-0.1946367259385121 -0.0964380996660128 0)
(-0.08927669048303806 -0.1212971893501138 -5.588953212834353e-20)
(0.03209418013684275 -0.1360411717018712 1.947206210386934e-20)
(0.1629102787013767 -0.1410974732199367 7.735045599872709e-20)
(0.2938128386779936 -0.1301727207925167 0)
(0.4078519940732349 -0.1023925804911432 0)
(0.4874281073410932 -0.05818779538580963 0)
(0.5180705879679651 -0.003082803150534101 0)
(0.4906634250963853 0.05525990703095526 0)
(0.4039537943113227 0.1081867863865174 -2.983626547148978e-20)
(0.2641448145295732 0.148117628153361 -1.852072530007519e-20)
(0.1053269912803491 0.1657213334512951 0)
(-0.1590626510703148 0.2051626478610293 0)
(-0.2086980329871468 0.01212842889074685 -4.580831322672892e-21)
(-0.1375576820918744 -0.01028059468877818 -6.009821106241858e-21)
(-0.1902069833745774 0.08755785023743759 0)
(-0.2784068804417424 0.07175808602962934 0)
(-0.315089060861643 0.002826515335935815 0)
(-0.273700541635398 -0.08531482189316074 0)
(-0.1862426150529444 -0.1404523125376902 0)
(-0.08162658528964317 -0.1729208515739284 -1.125914819369166e-19)
(0.03775329389130237 -0.193049917886393 -7.875299464006094e-20)
(0.1698036472953513 -0.202081423649468 3.905813368324736e-20)
(0.3057495121397192 -0.1872047880637224 3.727534033408612e-20)
(0.4265666463796701 -0.1483188054063596 3.46373181689775e-20)
(0.5124699510079315 -0.08526102316599656 0)
(0.5470168409187323 -0.005953519886326253 0)
(0.5200884443067741 0.07841417277820149 2.557976351648817e-21)
(0.4296446818844595 0.1555035351519776 -1.219496172561795e-20)
(0.2815541992059697 0.2142809985068673 -9.087670537120986e-21)
(0.1123677124122484 0.2417721921640661 0)
(-0.2105059648356409 0.310953924552672 0)
(-0.2662817451861478 -0.006539319179467104 -4.58837871227027e-21)
(-0.1163560034391777 -0.00428851587681248 -6.177613529862312e-21)
(-0.1629428379086545 0.1339054156178332 -2.786530559073347e-22)
(-0.2783864732547361 0.09882048368914315 0)
(-0.2953172680896355 0.0009564174021359124 0)
(-0.2301231154889374 -0.1237519375789448 0)
(-0.1405594093389126 -0.18612722543341 0)
(-0.04536916865806846 -0.2230396149718065 -5.663457666799874e-20)
(0.06323016375578075 -0.2479009074973457 -1.993451765396631e-20)
(0.1895233617861434 -0.2648085815433956 3.94753259109857e-20)
(0.3272557431219033 -0.2473460519203368 7.52930807302841e-20)
(0.4541663039099676 -0.1980051984640329 3.51783601320886e-20)
(0.547282756171723 -0.1151221939907011 -3.158403494857176e-20)
(0.586364620743963 -0.009748916566296568 0)
(0.5593674129275912 0.1025585685386581 3.277834958534951e-21)
(0.4633227954104222 0.2057585112277105 6.374110295422731e-21)
(0.3040298123826464 0.2851125548901993 3.061101599113308e-21)
(0.1212898664236288 0.3235898260275687 0)
(-0.2710114014998489 0.3641036695719709 0)
(-0.2250757837611423 -0.02167836984838778 -4.282153679730361e-21)
(-0.06842304967035742 -0.09273784113174591 -5.692333439487744e-21)
(-0.134037609505181 0.09591982297837476 -7.342150341149984e-23)
(-0.2536576311798202 0.1219001269382552 0)
(-0.164733630673931 -0.01019688162964564 0)
(-0.09400682922673503 -0.1702521114837159 0)
(-0.02204808558719033 -0.2306560485978273 -6.616798635607096e-22)
(0.04711773278623189 -0.2679892745729065 -2.126551746589203e-22)
(0.1302619511783177 -0.2941427155336983 8.050553232144976e-20)
(0.2364172940763808 -0.3232598717078708 7.707388696523244e-20)
(0.3668408270430102 -0.3061896651576427 7.279339754963388e-20)
(0.4952478850728396 -0.2500555663532852 3.577912081273963e-20)
(0.5943773303965965 -0.1479524068737156 -3.232558665226664e-20)
(0.6378398671279001 -0.01470880692760215 0)
(0.6101994421747859 0.1280820751973437 0)
(0.5067399531360353 0.2600156104148914 3.823252787353933e-21)
(0.3330181229087785 0.3621426526130925 8.444890901027191e-21)
(0.1328277407984197 0.4129306975114962 4.742517486134177e-21)
(-0.3026319421484529 0.660938652837204 0)
(0.07920626097424452 -0.2002713079167056 -1.053328066969501e-20)
(-0.003487569300157624 -0.04953148932267774 -1.339409784655684e-20)
(-0.03422153855404295 0.3587787723386553 5.496832489947202e-22)
(-0.1185790004281908 0.07788960264437048 0)
(0.1543715894397563 -0.0914174399768745 0)
(0.179873860568415 -0.2054205608748477 0)
(0.2094795478181515 -0.2593477929022086 -6.810454526183255e-22)
(0.2356874887119019 -0.3048390634986139 -4.397399826502107e-22)
(0.2663385597260814 -0.3273108587070969 4.041897468073235e-20)
(0.3312267803675989 -0.3751757604928366 3.65557701189238e-20)
(0.4370298168654559 -0.3568067752387076 7.202648754096032e-20)
(0.5564055163802185 -0.3000091665798167 7.263071317787632e-20)
(0.6576074536159859 -0.1814998680039263 0)
(0.7037242897546379 -0.01946973545017325 0)
(0.6743031097084042 0.1558915447082084 0)
(0.5613750815229267 0.3196217973314825 0)
(0.3696484040923687 0.4472730662677424 5.472254532145623e-21)
(0.1475559862410864 0.5120491778278969 5.332169176789938e-21)
(0.9471079979232375 0.139878536607326 -1.613485167815231e-21)
(0.5624634711519053 -0.06330008673026237 2.630551982836606e-22)
(0.5255126663512542 -0.04527055007617933 -5.206848180402264e-22)
(0.4568901597905469 0.1226513216337698 0)
(0.3553169135832898 0.1130970571664846 0)
(0.5604925485861155 -0.1035481545813468 0)
(0.6124604778538236 -0.2147503272548054 0)
(0.600451736503561 -0.2559529970736125 0)
(0.5727910315600845 -0.3074960917768411 -5.312995984240346e-20)
(0.4967816040558326 -0.3295078490861357 -2.027131433537006e-20)
(0.494503714597985 -0.4294965049238413 3.846239792860121e-20)
(0.5552658023736946 -0.4168800231441238 3.644808322534264e-20)
(0.645474790239738 -0.3593228579488304 3.67584226389447e-20)
(0.7435627617438922 -0.2209545082017675 0)
(0.7872484806555764 -0.02600819459300237 -7.180822811685979e-21)
(0.7537705224285146 0.1844393417852347 -7.219623203986868e-21)
(0.6290061453653792 0.3815788256149607 -1.269064033988105e-20)
(0.4152249006921963 0.5350995660148962 -1.354196569562274e-20)
(0.1660675074624955 0.6140053177799762 -5.881382822362555e-21)
(0.02859946526925359 -0.1950503999178365 0)
(0.06989824428136415 -0.1954928194244172 0)
(0.1193592709683574 -0.1951118149283797 0)
(0.1670901874749726 -0.1936484960768102 -9.31784352835734e-23)
(0.21426365158875 -0.1911940399653116 -1.902530086593444e-22)
(0.2610538323066732 -0.1877212948398121 -9.760875109718489e-23)
(0.3072708536168066 -0.1830800077128577 -1.861269425156503e-37)
(0.3526822524624941 -0.1770339166094427 1.793461891748454e-37)
(0.3970193072263837 -0.1692745175484731 0)
(0.4399399851738309 -0.159423641975318 1.145117917571995e-22)
(0.4810116601663024 -0.147035682401196 1.207861505201427e-22)
(0.5197075985412692 -0.1316050179866157 -6.400600279342009e-23)
(0.5554160760408388 -0.1125653911813419 6.817550614045331e-23)
(0.5874677278611944 -0.08925548395983453 1.462353982840396e-22)
(0.615183269681539 -0.06081191359620829 2.382534329714343e-22)
(0.6380028225152559 -0.02595006966268756 4.405930301393516e-22)
(0.655200754329742 0.01731080294007003 1.996701228421645e-22)
(0.6685321567815621 0.06940202210001607 2.245404561935636e-22)
(0.6791554878532731 0.1339488108920485 5.120999696914621e-22)
(0.6912192453370181 0.2167490507753136 3.036378330897646e-22)
(0.7151875545137472 0.3290198931448218 -3.859745767337542e-22)
(0.8028598439384638 0.4881169903242923 -5.101960043337348e-22)
(0.926770699691928 0.7659067857964816 0)
(0.0288108209398848 -0.2464140281782648 0)
(0.071380394530851 -0.2471965357031489 0)
(0.121528853546074 -0.2466270528476701 0)
(0.1701356839075003 -0.2449449865230782 0)
(0.218357396467768 -0.2421617019840833 0)
(0.2663862539401248 -0.2382158028303117 0)
(0.3140940521559061 -0.232924892792857 1.234782332374816e-22)
(0.361310488135648 -0.2259918722186638 1.295928693083475e-22)
(0.4078228392245079 -0.2170276238171453 0)
(0.4533408978657705 -0.2055567154153587 1.45823595657684e-22)
(0.497480066766151 -0.1910235913349722 1.559728280544815e-22)
(0.5397565184400118 -0.1728155872732633 -8.364160535788347e-23)
(0.5796043831456731 -0.1503002022572766 -8.967408261348295e-23)
(0.6164550947167404 -0.1228882846768395 0)
(0.6499181759799799 -0.09014966473321963 1.012526371594213e-22)
(0.679925542515988 -0.05199173869357109 1.054799226688345e-22)
(0.7060512126209222 -0.008695201816359469 0)
(0.7270973523906319 0.04228232607002929 0)
(0.7474460781791518 0.105151595471751 0)
(0.772970409024479 0.1797623198874847 0)
(0.8121423417078225 0.2667108224998814 -2.385701572769804e-22)
(0.8861282673054183 0.3645613310001936 -1.081275327148814e-22)
(1.009518684835703 0.4380430638540485 0)
(0.02928002087694668 -0.296380791308432 0)
(0.07300322943741168 -0.2968701047417426 0)
(0.1238078766543174 -0.2961681607121153 2.687512034994109e-22)
(0.173225834709743 -0.2943468225567388 2.736478996285415e-22)
(0.2224122780276619 -0.2914729732616985 0)
(0.2715762200796616 -0.2874669216773286 0)
(0.3206404649631168 -0.2820967980140821 0)
(0.3694911584039179 -0.2750024221347533 0)
(0.4179703306602965 -0.2657151345888226 0)
(0.4658414952270211 -0.2536520448205998 0)
(0.5127714430120761 -0.2381059561226304 0)
(0.5582989734213812 -0.2182414088017865 0)
(0.6017952968193557 -0.1930948479356808 0)
(0.6424285497085238 -0.1616160690459424 0)
(0.6791893670323567 -0.122742442605338 0)
(0.7112752115312256 -0.07560553696562511 0)
(0.7403577230663453 -0.02013978602064424 3.20924680707841e-22)
(0.7694290317705978 0.04417499561812249 3.334929834400515e-22)
(0.7980218676323612 0.1083927774230789 0)
(0.8268218855833738 0.1707236387652398 -5.839805899257246e-22)
(0.8652091541728332 0.2285261379438812 -4.373861013515857e-22)
(0.9254071420113434 0.2824928885554382 0)
(1.041865172057245 0.3206552435631539 0)
(0.02987073983496762 -0.3551946955705392 0)
(0.07415531830137501 -0.354763111004738 0)
(0.1250896313494313 -0.3541175075307689 5.248839301535203e-22)
(0.1748209780933562 -0.3523542208744138 5.318833971650789e-22)
(0.2243684035078115 -0.3496530551607978 0)
(0.2739710687388948 -0.3459291363003719 0)
(0.3236014380419057 -0.3409042202756785 0)
(0.3732132791661751 -0.3341940915392835 0)
(0.4227379940085749 -0.3253364729431963 0)
(0.4720569853064153 -0.3137760990853051 0)
(0.520999871060145 -0.2988527263408128 0)
(0.5692845300899494 -0.2797789402638477 0)
(0.6164435351283873 -0.2556376025674434 0)
(0.6617640471285631 -0.2254532224968821 0)
(0.7041949254964175 -0.1882910577633677 0)
(0.7425239466282972 -0.1436363000394769 0)
(0.7768370834209564 -0.09233200845977649 3.226854940321486e-22)
(0.8054571134091025 -0.03816354661466927 3.19161800704872e-22)
(0.8277795931440231 0.02068385788560375 0)
(0.8508346194291748 0.08028165827798388 -1.221054591169344e-21)
(0.8827199154479989 0.1347118421822764 -8.88089789542298e-22)
(0.927812188741129 0.1815972074197527 0)
(1.010173332584928 0.2099370959290608 0)
(0.03051579155541729 -0.4010901344659737 0)
(0.07460883383701888 -0.3997185831433567 0)
(0.1249153637279945 -0.3988218038020317 2.530555829466472e-22)
(0.1745180899555049 -0.3965333528693938 2.671050694862833e-22)
(0.2240100442227266 -0.3931626767301772 0)
(0.2737616094102677 -0.3886198814167612 0)
(0.3238829511344492 -0.3825542846509726 0)
(0.374465593526545 -0.3744817292098601 0)
(0.4255890213370607 -0.3637988774066566 0)
(0.4772924772336726 -0.3497041510105534 0)
(0.5296258104537266 -0.3312164323404663 0)
(0.5825719084504811 -0.3071383832548479 0)
(0.6357708547369543 -0.2760540167832286 0)
(0.6873410780405297 -0.2358108373376746 0)
(0.7294496081981316 -0.1862542093093769 0)
(0.75540224820347 -0.1228155660740305 0)
(0.7655524122712843 -0.06413901073910931 0)
(0.7836513750992185 0.00309887108136771 0)
(0.8091603009090719 0.07309053307588619 0)
(0.8375102830413824 0.1223387946818173 -1.023769854346572e-21)
(0.8680420044003343 0.1535787993725314 -6.317223559791803e-22)
(0.9076645440596072 0.1738541127587659 0)
(0.9637347589795534 0.1761056829523121 0)
(0.03657100557628257 -0.4412285690124044 0)
(0.07908781185701842 -0.4352880324390687 0)
(0.1382161390576176 -0.4380567806997342 0)
(0.1936642684602446 -0.436549483260835 -1.158821365480003e-21)
(0.2490510839445872 -0.4348092162133449 -1.218732663014342e-21)
(0.3067205585407466 -0.4331493386563831 0)
(0.3673351992691084 -0.4302268025413823 0)
(0.4298873169805288 -0.4256822299764041 0)
(0.4925639636356953 -0.4184290774398121 0)
(0.5541874617844724 -0.4072615058343111 0)
(0.6118302005507946 -0.3912491741440134 0)
(0.6624097928862333 -0.3685375245196086 0)
(0.7004027249890006 -0.3363619940520127 0)
(0.7219449369840409 -0.2875423055170855 0)
(0.7297059851384858 -0.2182772787083092 0)
(0.7245109692024195 -0.1453055690293751 0)
(0.7113697485871974 -0.09411530235170035 0)
(0.7137514779950144 -0.051677739742163 0)
(0.7573000853824949 0.004481009922376528 1.771060677794643e-21)
(0.8409411997031891 0.07249735616108524 2.750748461852003e-21)
(0.9482621974492745 0.1325661822605821 0)
(1.041055731012764 0.1666991349213518 0)
(1.013565944117762 0.1427520324510429 0)
(0.02372227887396723 -0.5011038321462001 0)
(0.06112094401562111 -0.4982413168945613 0)
(0.1175776339790661 -0.5011173064639629 0)
(0.1721802658294369 -0.4995669356983238 -1.415653578428923e-21)
(0.2319584245216115 -0.5006958358831151 -1.484460627116677e-21)
(0.2961281405247937 -0.502373421884731 -1.810963483613449e-21)
(0.3644743315630034 -0.5019469713508493 -1.954328275373367e-21)
(0.4355996321006815 -0.4987686407613026 0)
(0.5058411572113093 -0.4906652036683741 0)
(0.5722650254994234 -0.4757812023851135 -2.541346940231188e-21)
(0.632900821119775 -0.453423649270584 -2.775570908537015e-21)
(0.6857133795987422 -0.41861310757254 0)
(0.7264349070319016 -0.3655318558698366 3.542639466470394e-21)
(0.7510777976616456 -0.2933462778112554 8.7366792915889e-21)
(0.7622919607983334 -0.2068675341557204 4.611060020322667e-21)
(0.776043752935583 -0.1250208879519668 0)
(0.8076589417095696 -0.07747345032895331 0)
(0.8566205254612178 -0.0686979702018175 0)
(0.9201909595210224 -0.07815944136459924 3.71800034313826e-21)
(1.004659066504018 -0.1035185525083404 1.012737726470908e-20)
(1.110507851245997 -0.1149437796966677 3.879871919942048e-21)
(1.26845382408879 -0.04439344363201771 0)
(1.494354809629866 0.03072594590391906 0)
(0.01794645697763329 -0.5320083317893498 0)
(0.05732163154915486 -0.5448628712593127 0)
(0.1098373811710768 -0.5511736687818894 0)
(0.1633166131111234 -0.5554752568275672 0)
(0.2218178021120388 -0.5622540537739336 0)
(0.2853417233149534 -0.5697272171298516 -2.057855063923972e-21)
(0.3526913575694399 -0.5743087011744046 -2.230611299105028e-21)
(0.4215070486470386 -0.572913473247243 0)
(0.4887332871566355 -0.5628306097677732 0)
(0.5519100091653785 -0.5433182703053598 -2.915896016669099e-21)
(0.6098119907839578 -0.5149009337679382 -3.177127927506523e-21)
(0.6629875848613545 -0.4717604190359691 0)
(0.7103320139486899 -0.4066356004750435 3.827889377806827e-21)
(0.7515269373302268 -0.3239094799826122 8.598660950623316e-21)
(0.7927276780287177 -0.2403051752745481 4.442776042035765e-21)
(0.8440791106401969 -0.1758466822142341 0)
(0.9092852833050795 -0.1441038845376204 0)
(0.9861778981581726 -0.1365770199271077 0)
(1.072506638100929 -0.1348566063530759 0)
(1.166374342668925 -0.1325177411074811 4.981227574632604e-21)
(1.268792584259698 -0.1374069363420376 5.122228132817995e-21)
(1.392204121503121 -0.1516138200482602 0)
(1.572005499343916 -0.1995939609096353 0)
(0.01701037563304341 -0.5683031107849944 0)
(0.05497262402532448 -0.5930825274593889 0)
(0.1018136144366159 -0.6027899435108612 0)
(0.1509774345073498 -0.6122420586075028 0)
(0.2044689975737306 -0.6241943682177524 0)
(0.2622467347760282 -0.636106719552871 0)
(0.3227216630585571 -0.6433346123542192 0)
(0.3836821321248389 -0.6415045337850405 0)
(0.4426851130553317 -0.6280152572793027 0)
(0.4982172482958399 -0.6030132339662425 0)
(0.5481903300693093 -0.5706082780007816 0)
(0.5945474053170968 -0.5240555863488353 0)
(0.6382621878548668 -0.4555466382282126 0)
(0.6826868973527246 -0.3737022453706508 0)
(0.7329192191556035 -0.2977648188496923 0)
(0.7934544162914765 -0.240440882324101 0)
(0.8608849153655954 -0.2143702975985104 0)
(0.9327901774900575 -0.2137684339965823 0)
(1.008056837924296 -0.2262932147155827 0)
(1.091014915436741 -0.2479521293349622 0)
(1.187474213622365 -0.2826393987214493 0)
(1.306499158866654 -0.3215152541779134 0)
(1.479141424292516 -0.3664240263273319 0)
(0.01622273203728748 -0.6025222778036363 6.256496037806253e-38)
(0.05083935301194283 -0.6350178700880255 0)
(0.09058062036994526 -0.6475740183268076 0)
(0.1329205010498013 -0.6609278327048687 0)
(0.1785350292733699 -0.6768792503409027 0)
(0.2273450863937955 -0.6917087566561589 0)
(0.2774722248734839 -0.6999883306654113 0)
(0.327054992291283 -0.6968963092724043 0)
(0.3744894352769623 -0.6802041741294322 0)
(0.4193597152797232 -0.6506663378841315 0)
(0.4586444622807887 -0.614556998824581 0)
(0.492607656403751 -0.5636356812760641 0)
(0.5247270348176146 -0.4915304035595582 0)
(0.5567207434643725 -0.4147389429994383 0)
(0.5988762612825739 -0.3506521105540506 0)
(0.654506061191314 -0.3029483509776537 0)
(0.7150351959031929 -0.2838922098906979 0)
(0.7814224409828283 -0.2834821557818501 0)
(0.8523375544048762 -0.2977935421212594 0)
(0.9381910897975625 -0.3277757955816296 0)
(1.04353493549784 -0.3791972628349096 0)
(1.170044101732992 -0.4446040654176553 0)