/*--------------------------------*- C++ -*----------------------------------*\
| =========                 |                                                 |
| \\      /  F ield         | OpenFOAM: The Open Source CFD Toolbox           |
|  \\    /   O peration     | Version:  2206                                  |
|   \\  /    A nd           | Website:  www.openfoam.com                      |
|    \\/     M anipulation  |                                                 |
\*---------------------------------------------------------------------------*/
FoamFile
{
    version     2.0;
    format      ascii;
    arch        "LSB;label=32;scalar=64";
    class       surfaceScalarField;
    location    "0.15";
    object      alphaPhi0.water;
}
// * * * * * * * * * * * * * * * * * * * * * * * * * * * * * * * * * * * * * //

dimensions      [0 3 -1 0 0 0 0];

oriented        oriented;

internalField   nonuniform List<scalar> 
4432
(
6.09306763256764e-06
-6.093067668231977e-06
1.228374250799514e-05
-6.190674917400488e-06
1.854387717423483e-05
-6.26013470978261e-06
2.493613338022334e-05
-6.392256250073285e-06
3.150780478087333e-05
-6.571671442971441e-06
3.829969510967833e-05
-6.791890365481249e-06
4.535242360495454e-05
-7.052728522142586e-06
5.270423489787477e-05
-7.351811307855599e-06
6.038875630167717e-05
-7.684521408763878e-06
6.842925710878751e-05
-8.040500808068785e-06
7.683651191952638e-05
-8.40725481166763e-06
8.560452293084731e-05
-8.7680091496659e-06
9.469431482003254e-05
-9.089784236959088e-06
0.0001039656247949963
-9.271292741910448e-06
0.0001130342179401717
-9.06856496970015e-06
0.0001211030573969404
-8.06880189280209e-06
0.000126848725996723
-5.74562524443565e-06
0.0001284127023060395
-1.563929340342167e-06
0.0001235096496401236
4.90310796851507e-06
0.0001094424467624729
1.406726226418241e-05
8.409809532599758e-05
2.534439488721942e-05
4.553987361133704e-05
3.855819769620058e-05
4.475438351805013e-05
6.135182013936462e-06
-1.222824974181725e-05
1.233402028500169e-05
-1.238951325388926e-05
1.861544705977263e-05
-1.25415615518513e-05
2.502946064739217e-05
-1.280626990600757e-05
3.162118732061288e-05
-1.316339818330922e-05
3.843305103319429e-05
-1.360375414043172e-05
4.550654169728158e-05
-1.412621924046457e-05
5.288062568643128e-05
-1.472589534236164e-05
6.05897626348756e-05
-1.53936583971538e-05
6.865938485678814e-05
-1.611012307135761e-05
7.710094253402489e-05
-1.684881253426775e-05
8.59064029005027e-05
-1.75734668120175e-05
9.503468407512411e-05
-1.82180541287572e-05
0.0001043509541102235
-1.858753784823744e-05
0.0001134924896108173
-1.821006180785528e-05
0.0001217065562703237
-1.62828220035178e-05
0.000127741316473208
-1.178034065723833e-05
0.0001298031776461647
-3.625753990322798e-06
0.0001255588355038213
9.147492763858562e-06
0.0001122619714663024
2.736418668777888e-05
8.722295960943021e-05
5.038348241957938e-05
4.877935093462621e-05
7.700184197378952e-05
9.318264896731481e-05
6.121682045805443e-06
-1.834993186936071e-05
1.229338407067289e-05
-1.856121536632336e-05
1.855519683909628e-05
-1.880337441022789e-05
2.495054470166387e-05
-1.920161786032723e-05
3.152271084166323e-05
-1.973556441502556e-05
3.831521629763256e-05
-2.039625968513639e-05
4.53705937802639e-05
-2.118159680642964e-05
5.272897789571919e-05
-2.208427953629098e-05
6.042650746889921e-05
-2.309118804860343e-05
6.84914509707556e-05
-2.417506665851748e-05
7.693888028827163e-05
-2.529624194492945e-05
8.576485457286304e-05
-2.639943711422478e-05
9.493734600197553e-05
-2.739052900433276e-05
0.0001043403457047861
-2.799050188112461e-05
0.0001136426529685381
-2.751231620136044e-05
0.000122143766316067
-2.478387650218151e-05
0.0001286697486462632
-1.830627403491945e-05
0.0001315103481521288
-6.46632629048128e-06
0.0001283626415255625
1.22952204492503e-05
0.000116339201731268
3.938766346063731e-05
9.197105401008052e-05
7.475169829084389e-05
5.301422285187671e-05
0.0001159587597891803
0.0001460399634011927
6.094986543036848e-06
-2.444491851677217e-05
1.223123981634575e-05
-2.469746875017886e-05
1.846190468831793e-05
-2.503403939583083e-05
2.482655038391691e-05
-2.556626367234951e-05
3.136754719740184e-05
-2.627656134648247e-05
3.812931222553211e-05
-2.715802483067224e-05
4.515558175619918e-05
-2.82078664525599e-05
5.248820051146248e-05
-2.94168984066984e-05
6.016597169681952e-05
-3.076895935412612e-05
6.822148950030906e-05
-3.223058459429109e-05
7.667649415640516e-05
-3.375124674384975e-05
8.553718036276756e-05
-3.526011756769563e-05
9.478998845528661e-05
-3.664331361508924e-05
0.0001043465654759429
-3.754702981538817e-05
0.0001139130963011764
-3.70787771645929e-05
0.0001228519318494464
-3.372263853988632e-05
0.0001301037023076534
-2.555798963457409e-05
0.0001341198741953372
-1.048248034961855e-05
0.0001326733367153476
1.37417533681654e-05
0.0001227119029173781
4.934910858154569e-05
9.922179179926547e-05
9.824187072090806e-05
5.905624286179168e-05
0.0001561244423030672
0.0002064035973686139
6.052970296364976e-06
-3.049788893879608e-05
1.214263146508417e-05
-3.078713005131678e-05
1.83300364999291e-05
-3.122144456695075e-05
2.46512910222949e-05
-3.188751833499024e-05
3.114873505743975e-05
-3.277400552534967e-05
3.786777722365953e-05
-3.387706714288624e-05
4.485364716139735e-05
-3.519373653820247e-05
5.215053486055338e-05
-3.671378625812395e-05
5.980096124465426e-05
-3.841938590038736e-05
6.784330991065376e-05
-4.027293343874638e-05
7.630852999959396e-05
-4.221646702281586e-05
8.521759769471765e-05
-4.416917709521125e-05
9.458254109055407e-05
-4.600822465649847e-05
0.0001043475058068227
-4.731192945494883e-05
0.000114255120448307
-4.698630291971354e-05
0.0001237330523937908
-4.320048056519432e-05
0.0001318726544998546
-3.369752825641008e-05
0.0001373816381189828
-1.599145237410674e-05
0.0001383383947980354
1.278495964785081e-05
0.000131579295934103
5.610817202336734e-05
0.000108918725375642
0.0001209024743099875
6.669914230135952e-05
0.0001983441892875927
0.0002731025697673108
5.994986046643514e-06
-3.649287513073956e-05
1.202714710093163e-05
-3.681929125863589e-05
1.816001621061412e-05
-3.735431383447285e-05
2.442657261397923e-05
-3.815407490157903e-05
3.086972126493693e-05
-3.921715434515017e-05
3.753608304099312e-05
-4.05434290931753e-05
4.447271527921566e-05
-4.213036895658431e-05
5.172667851468968e-05
-4.396774968272482e-05
5.934504009897289e-05
-4.603774768812416e-05
6.737286619286452e-05
-4.830075975568144e-05
7.585174199831993e-05
-5.069534306168024e-05
8.482011941017652e-05
-5.313754305163304e-05
9.43195577871652e-05
-5.550761935747149e-05
0.0001043272422815465
-5.731953015498341e-05
0.0001146168452226848
-5.727579685706764e-05
0.0001246810380241998
-5.326456696463196e-05
0.0001337959166154741
-4.281233186028573e-05
0.0001410847874197086
-2.328031042650651e-05
0.0001452921933354251
8.577471076070394e-06
0.0001433315289786575
5.806873593659309e-05
0.0001203223992969853
0.0001439115763024082
7.446066921549361e-05
0.0002442060881360208
0.0003475631311290107
5.929303752348288e-06
-4.242217904757888e-05
1.189524217233823e-05
-4.278522985246303e-05
1.796371669173382e-05
-4.342278853394119e-05
2.416615609058484e-05
-4.435651448778014e-05
3.054622106360727e-05
-4.559721951385877e-05
3.715191346353171e-05
-4.714912169784927e-05
4.403229584490429e-05
-4.901075155301556e-05
5.123753696177489e-05
-5.117299102790272e-05
5.881961854582714e-05
-5.361982951760623e-05
6.68307881884431e-05
-5.63119296633231e-05
7.532400054292641e-05
-5.918855568423295e-05
8.435626845307036e-05
-6.216979498686306e-05
9.399783647860431e-05
-6.514912915158011e-05
0.0001042522226817779
-6.757381084342669e-05
0.0001149145847906825
-6.793803027827534e-05
0.0001255342667953476
-6.388413030236986e-05
0.0001355847455948605
-5.28627266084563e-05
0.0001447184340865168
-3.241396914719393e-05
0.0001529869758144086
3.088260664144734e-07
0.0001580590499758009
5.299644060722777e-05
0.0001321759519062962
0.0001697944048575555
7.882743017919002e-05
0.0002975546564554362
0.000426390500814113
5.867877720880743e-06
-4.829005700830765e-05
1.17541502174188e-05
-4.867150259742511e-05
1.774891627271889e-05
-4.941755484595545e-05
2.387750080719355e-05
-5.048509928942238e-05
3.018497106546959e-05
-5.190469005201912e-05
3.672094742887639e-05
-5.368509835587488e-05
4.353649819567533e-05
-5.582630263101589e-05
5.068519357077073e-05
-5.832168673263322e-05
5.822387481006588e-05
-6.11585111054015e-05
6.621269802044374e-05
-6.430075323811521e-05
7.471722856118067e-05
-6.769308657580324e-05
8.381483262717605e-05
-7.126737688760861e-05
9.359998433202738e-05
-7.493420102594758e-05
0.0001040878850312932
-7.806156851491702e-05
0.0001150828174234005
-7.893278855302315e-05
0.0001261903120671686
-7.499146237596145e-05
0.0001370475970591777
-6.371989041122985e-05
0.0001478952566531832
-4.326156015291441e-05
0.0001607422427597187
-1.253827760845356e-05
0.0001695811536102398
3.527173167991818e-05
0.0001313871822590954
0.0001765679925928607
7.444615049066596e-05
0.0003544958910183219
0.0005008368941998623
4.716299957220339e-42
-2.750020487372269e-43
5.146166807086989e-41
-1.550884958710215e-42
1.148833608026841e-41
8.682680589189776e-40
2.22951726840954e-43
6.357799152683093e-40
1.997290040042865e-45
1.825453782443145e-41
1.085047145034786e-47
2.397517863962341e-43
5.555476188831528e-51
2.453676122681521e-45
-8.181781178821659e-50
2.307807221694571e-47
-1.544407432204106e-51
1.804146685046938e-49
-1.815662290528914e-53
1.045605154278132e-51
-1.629423067771325e-55
3.109805490783161e-54
-1.390149142940213e-57
-4.82285085753443e-59
-1.098281282510911e-59
-1.088302913965461e-60
-7.075992519144813e-62
-1.148953098526081e-62
-3.478658135532947e-64
-8.266468065394836e-65
-1.210093723555986e-66
-4.198956574901986e-67
-2.628844616876464e-69
-1.448323555187646e-69
-2.647556641614773e-72
-3.036609416013276e-72
-2.847387331304626e-75
1.411605318617746e-39
-1.615952470890129e-40
1.650053407359391e-38
-8.332341521748694e-40
2.626050107880345e-39
3.336643721833125e-37
4.606913957806835e-41
1.428224311599698e-37
3.844287713766505e-43
3.914736932830815e-39
1.631145496899993e-45
5.284807069973513e-41
-9.864798301093151e-46
5.678599048945891e-43
-3.74800462109739e-47
5.44393038260915e-45
-6.554226273166662e-49
4.263776984369941e-47
-8.355580675998189e-51
2.423250918037429e-49
-8.952436848761224e-53
5.771154344539086e-52
-9.049669852926933e-55
-7.420106339135455e-56
-8.065049834461294e-57
-1.565698143305538e-57
-5.803630042233621e-59
-1.785619696565863e-59
-3.176448519190808e-61
-1.413314848672502e-61
-1.229470751059709e-63
-7.942665952820195e-64
-2.974814926345373e-66
-3.041187626701709e-66
-3.335758297039092e-69
-7.111092626403414e-69
-7.42105470253765e-72
2.168591687128839e-37
-3.794514120712241e-38
2.510354679529561e-36
-1.582750770468035e-37
2.894063157514754e-37
5.282141730835347e-35
4.83987547997224e-39
1.415523743172582e-35
3.992557730323585e-41
3.864664436167105e-37
1.531211738869855e-43
5.531152003577432e-39
-1.480747130944237e-43
6.368393315994005e-41
-4.889199166320084e-45
6.324628347226647e-43
-8.453323424026352e-47
4.987221145389602e-45
-1.096288685475988e-48
2.809428784191053e-47
-1.224330093695253e-50
5.469455835612056e-50
-1.302774676667199e-52
-1.804604747341975e-53
-1.214068971280609e-54
-3.69012590792877e-55
-9.121105725694467e-57
-4.315989990022102e-57
-5.207655474699955e-59
-3.537543651849643e-59
-2.101892252475922e-61
-2.065443169996473e-61
-5.303437281147923e-64
-8.230557109304757e-64
-6.208660023742785e-67
-2.006406292176559e-66
-2.186969440245636e-69
2.28635552057816e-35
-5.596721051726184e-36
2.26427697067477e-34
-1.709021896731659e-35
1.917396924218865e-35
4.486589127488449e-33
3.134485833519649e-37
8.034019937744524e-34
2.595137823271396e-39
2.276051795469499e-35
7.785192461692831e-42
3.59106695061903e-37
-1.46448473732843e-41
4.538372638064433e-39
-4.270835929876303e-43
4.773839156827034e-41
-7.229397096016698e-45
3.820415081014992e-43
-9.413002153428482e-47
2.126331296722616e-45
-1.08078873743949e-48
2.991615166358992e-48
-1.195878233786121e-50
-2.410739042627113e-51
-1.155032975567467e-52
-4.822505838968883e-53
-8.998294076105806e-55
-5.766642306245702e-55
-5.329899588925993e-57
-4.875905721879735e-57
-2.232366347284391e-59
-2.946165378702639e-59
-5.846399596618965e-62
-1.216775355332142e-61
-7.110491645664367e-65
-3.077851400787915e-64
-3.487511771106241e-67
1.874911442881798e-33
-6.151358796044929e-34
1.233624661457008e-32
-1.267767576610339e-33
8.100485689380674e-34
2.16323340498089e-31
1.340738072673709e-35
2.829863021067442e-32
1.124814757091019e-37
8.651625766815942e-34
1.351411737513446e-40
1.569395126399041e-35
-1.04899223563635e-39
2.270074472996017e-37
-2.803400671505948e-41
2.563627125028288e-39
-4.660891980050019e-43
2.116149542071888e-41
-6.063272406814335e-45
1.163933432854057e-43
-7.0924993115156e-47
7.322017722286759e-47
-8.083787683592623e-49
-2.197380917106255e-49
-8.031459788778446e-51
-4.287608873434087e-51
-6.455606815254358e-53
-5.218356865890328e-53
-3.954182724462823e-55
-4.538515336843563e-55
-1.714930938708049e-57
-2.832533121991305e-57
-4.654209939024217e-60
-1.210667815595011e-59
-5.871255650785778e-63
-3.173095718130065e-62
-3.731519169198494e-65
1.110377167911599e-31
-4.670509787248804e-32
4.066608967606843e-31
-6.248704806300395e-32
2.169465703638826e-32
6.163574386136419e-30
3.830715995509403e-34
6.399895280863655e-31
3.147809750608835e-36
2.181279467894846e-32
-5.078952485574801e-37
4.777575901235493e-34
-5.606160003918746e-38
8.130403828026303e-36
-1.425318652590247e-39
1.006757159996779e-37
-2.37091627314209e-41
8.774331253747864e-40
-3.104006756774017e-43
4.800825460589594e-42
-3.691138837371281e-45
-6.786786600880037e-47
-4.27668012861925e-47
-1.496806109284829e-47
-4.321261970263131e-49
-2.822456177633384e-49
-3.552778979458407e-51
-3.465309321352451e-51
-2.237331271059024e-53
-3.081748257143922e-53
-1.001151451386438e-55
-1.979430309891092e-55
-2.809514897944528e-58
-8.736510506867144e-58
-3.67071981248108e-61
-2.369104159268924e-60
-2.887846581477544e-63
4.529786414930739e-30
-2.292099273886048e-30
8.093025300915304e-30
-1.879581677479448e-30
3.68346683781569e-31
1.059674854286604e-28
6.703290502412875e-33
9.566935192120092e-30
5.191743253960571e-35
3.694973211357797e-31
-3.90310236196109e-35
1.012673069069109e-32
-2.217042908187233e-36
2.061045311985502e-34
-5.607858566146952e-38
2.894972415229124e-36
-9.60966272084421e-40
2.743550533405959e-38
-1.29361856263177e-41
1.494573719921786e-40
-1.580697645767858e-43
-1.170729945999251e-44
-1.839396974898296e-45
-8.02999404775477e-46
-1.861936516973718e-47
-1.444458213794328e-47
-1.543959430256809e-49
-1.763379801787399e-49
-9.887693989193779e-52
-1.585668942007088e-51
-4.530216660550214e-54
-1.040041364015153e-53
-1.308039583358884e-56
-4.716286350660398e-56
-1.764572705807234e-59
-1.319036596817232e-58
-1.663331373311098e-61
1.868624016085309e-28
-9.696096094028849e-29
9.730699216305087e-29
-2.7405127189049e-29
4.02348661146401e-30
1.115499795326859e-27
7.269990348889944e-32
9.633919866896121e-29
7.448821579559769e-35
4.318104300769517e-30
-1.368866077600022e-33
1.470830747250542e-31
-6.397342407664802e-35
3.565020678827505e-33
-1.688447880546554e-36
5.980480076804491e-35
-3.08974542305276e-38
6.542621115605949e-37
-4.383525468400673e-40
3.673046043763636e-39
-5.565711484760435e-42
-8.092839779621968e-43
-6.510227265770652e-44
-3.461439289401726e-44
-6.528808325361831e-46
-5.889922720721087e-46
-5.364043923115379e-48
-7.021488527421462e-48
-3.428799808545731e-50
-6.264284751833694e-50
-1.583048001935661e-52
-4.128563645306389e-52
-4.646822064121075e-55
-1.900422393051898e-54
-6.418683245237874e-58
-5.436518342258082e-57
-7.054087697471394e-60
1.22500220849214e-05
-6.054007964173666e-05
2.463750852977866e-05
-6.105898960475954e-05
3.71891749992057e-05
-6.196922189330462e-05
5.002909462348659e-05
-6.332501951182584e-05
6.325712633691461e-05
-6.513272238809692e-05
7.697747760860553e-05
-6.740545027791399e-05
9.130322818982503e-05
-7.015205389142766e-05
0.000106355181254188
-7.337364050320972e-05
0.0001222678660112152
-7.707119658689983e-05
0.0001391848438809176
-8.121773183022768e-05
0.0001572733620627178
-8.578160537093137e-05
0.0001767469985245874
-9.074094778145628e-05
0.000197868917827184
-9.605589956448739e-05
0.0002206843148509874
-0.0001008766031876966
0.0002448063410472763
-0.0001030544161351409
0.0002697484650028861
-9.993325686713785e-05
0.000295797707604228
-8.976893098022433e-05
0.0003223443920969199
-6.980823000557197e-05
0.0002896989788579367
-2.480060122921801e-05
9.669802147608303e-05
2.506977860164794e-06
3.689462012715776e-05
0
9.935598739859491e-05
1.56900913403435e-05
0.0004322259537411319
0.0001679698443071118
1.178249973251098e-05
-7.232257987692083e-05
2.369715603043924e-05
-7.2973646416126e-05
3.579789760115521e-05
-7.406996398754368e-05
4.817718531147946e-05
-7.57043077566025e-05
6.093700845232097e-05
-7.789254607339313e-05
7.418532238912014e-05
-8.065376476361428e-05
8.803986178090287e-05
-8.400659382242872e-05
0.0001026303983453879
-8.796417757110108e-05
0.0001181062327928994
-9.25470314552293e-05
0.0001346332497401394
-9.774474903037514e-05
0.000152415692952133
-0.0001035640483625072
0.0001717289360619845
-0.0001100540787373443
0.0001928822642454538
-0.0001172088895713061
0.0002158162331086333
-0.0001238101047316081
0.0002399866995913509
-0.0001272244874798996
0.0002650638453438747
-0.0001250102150332942
0.0002836759425740329
-0.000108381105711162
0.0001746008599107117
-4.659917308185937e-05
-1.09580051862421e-06
-4.135151945750582e-06
-6.23223826130905e-22
-1.539809275602959e-22
4.602193984626806e-22
3.152155054494329e-23
1.569009134034353e-05
3.316667387394452e-22
5.238194050134987e-05
6.445642861435737e-05
1.125228948577098e-05
-8.357486976453654e-05
2.261943432675622e-05
-8.434079165882474e-05
3.416770167763521e-05
-8.561823173109997e-05
4.59839394123178e-05
-8.752054586425335e-05
5.816720499846137e-05
-9.007581199700067e-05
7.08254916666489e-05
-9.331205170447789e-05
8.407814551404185e-05
-9.725924782320453e-05
9.805925128937115e-05
-0.0001019452832926256
0.000112926324363163
-0.0001074141041277345
0.0001288555256102144
-0.0001136739492729233
0.0001460751569613682
-0.0001207836772908827
0.0001648887941208029
-0.0001288675315126397
0.0001855341026429292
-0.0001378537043259306
0.0002077038612068568
-0.0001459793126849197
0.0002308959637684732
-0.0001504162812497658
0.0002479295516534802
-0.0001420438058102814
0.0001393025611170442
-7.829696832367225e-05
4.135151945750585e-06
-4.84986617589002e-06
1.325497750118111e-22
3.242491814006791e-41
-1.231067491282431e-39
-8.173486704713248e-40
-1.508316727707077e-23
-1.401451759725964e-23
-1.026885359771929e-23
-8.931213738478049e-23
5.864216551099034e-23
8.232184979998037e-08
1.062545577316595e-05
-9.42003254251188e-05
2.135590262485537e-05
-9.507123836263638e-05
3.225405978986246e-05
-9.651638868001644e-05
4.340276813436686e-05
-9.866925388117585e-05
5.489633485170967e-05
-0.0001015693782222801
6.683899917595055e-05
-0.0001052547152834042
7.934742312087727e-05
-0.0001097676706158452
9.255468774047446e-05
-0.000115152546121576
0.0001066184365816148
-0.000121477850194509
0.0001217139384655596
-0.0001287694467547102
0.0001380813556191148
-0.0001371510864312251
0.0001560047854872954
-0.0001467906685335693
0.0001755293582666811
-0.0001573775983738978
0.0001961796652132924
-0.000166629071611893
0.0002179966863424683
-0.0001722331887918384
0.0001523845971261962
-0.0001303596271898351
4.849865380036321e-06
-9.979944748848613e-06
-2.83296875295474e-22
3.310405553948434e-23
-8.67668718354583e-40
-3.434027626428856e-40
-2.364990281429907e-24
-3.392676409866741e-24
-5.656150793986212e-24
-1.019056881617105e-23
-1.355814379112955e-23
-2.517959505313705e-23
-1.324596973078305e-23
-3.040271480740026e-24
9.913358120411728e-06
-0.0001041136818801313
1.99218518463314e-05
-0.0001050797303021
3.007964548307021e-05
-0.0001066741803184261
4.046321944172174e-05
-0.0001090528255141454
5.115955078271989e-05
-0.0001122657067834187
6.226556686708206e-05
-0.0001163607279168671
7.3890860587464e-05
-0.0001213929598508203
8.616243633985511e-05
-0.0001274241158425913
9.923038373578125e-05
-0.0001345457892969799
0.0001132624226052712
-0.0001428014736687018
0.0001285025596691157
-0.0001523912035764259
0.0001451608663407767
-0.000163448525764364
0.0001630477708276432
-0.0001752636343583283
0.0001818170009588281
-0.0001853978919785851
0.0001784923406388582
-0.0001689086343336706
9.979915265531395e-06
-4.128652789081077e-05
-8.891513595506352e-23
4.521543664317712e-23
2.957030774448637e-39
4.36342428067189e-26
-8.585862194848489e-25
-1.571199799268052e-24
-7.882373296688879e-25
-3.066340599220438e-24
-1.641224724957182e-24
-4.937082766854666e-24
-5.325543710026635e-24
-1.126858852875915e-23
-1.964452606667539e-23
-9.084173710052805e-24
9.125798078778077e-06
-0.0001132394744785042
1.833478132932127e-05
-0.0001142887077739884
2.767012590446792e-05
-0.0001160095186108811
3.719918631565322e-05
-0.0001185818788912016
4.699858477632496e-05
-0.0001220650972170889
5.715447772330166e-05
-0.0001265166113839166
6.776532873758908e-05
-0.0001320037991902275
7.89477106226811e-05
-0.0001386064828873859
9.083785631324012e-05
-0.0001464359157177347
0.0001035958012370623
-0.0001555593922185792
0.0001174560881007975
-0.00016625144867966
0.0001325091685265189
-0.0001785009408075545
0.0001484747343163778
-0.0001912281852442496
0.0001654466759075461
-0.0002023696783923628
6.047395360098311e-05
-0.0001219388752140644
0
-1.804333408406674e-06
-4.725206387213068e-24
1.056373402347473e-24
-3.012839678774118e-25
-7.607352571471512e-25
3.126884408605418e-26
-1.309709272525968e-24
4.894099405692366e-26
-1.776754957351424e-24
-2.447179248724687e-25
-2.499315933165895e-24
-1.36988236472527e-24
-4.498254353561098e-24
-1.556357111577578e-23
-5.524111088273688e-24
8.274516816336769e-06
-0.0001215139777547455
1.661766329413457e-05
-0.0001226318401045019
2.505994545543172e-05
-0.0001244517856167239
3.365691915652776e-05
-0.000127178835991606
4.247179547058594e-05
-0.0001308799551183824
5.157662590300018e-05
-0.0001356214207181294
6.105514436386485e-05
-0.000141482292539624
7.100995175713277e-05
-0.0001485612596015981
8.155998264650903e-05
-0.0001569859084823934
9.28659107465826e-05
-0.0001668652701717157
0.0001051308276135053
-0.0001785162891616952
0.0001183546224257314
-0.0001917237878770438
0.0001323670612244729
-0.0002052395717026605
0.0001214155551804954
-0.0001914182855202789
1.804313114058354e-06
-3.2128142636115e-05
-1.315166408417563e-22
3.032928366655137e-22
-2.851379858762709e-25
-1.953797495509514e-25
1.055790056541781e-25
-8.289367617231323e-25
1.742664855724192e-25
-7.100636841759795e-25
1.871591560300106e-25
-8.403697254167257e-25
1.159186918340636e-25
-1.102443251002741e-24
-1.621955462665387e-25
-1.602821441431366e-24
-8.655663147265976e-24
-2.173778398001189e-24
7.373945301156105e-06
-0.0001288878947685477
1.479931850675298e-05
-0.0001300571839701745
2.229282389116655e-05
-0.000131945259930351
2.989578698009041e-05
-0.0001347817656595287
3.765508416282609e-05
-0.0001386392161014601
4.562538605452623e-05
-0.0001435916820899307
5.3872086766826e-05
-0.0001497289464593814
6.248007808466171e-05
-0.0001571691958255367
7.155034561287426e-05
-0.0001660561102828258
8.125412255307209e-05
-0.0001765689637038122
9.173471680168948e-05
-0.0001889967613908601
0.0001031219840922971
-0.0002031097601146254
0.0001157609909610825
-0.0002178776338104649
3.364363713960119e-05
-0.0001284762762255192
0
-1.242720143498661e-06
3.029379961200906e-25
1.623689898963163e-24
1.075582465691383e-25
0
1.04778310191069e-25
-5.072504067592163e-25
1.027493128732839e-25
-3.405385298700486e-25
1.040942706218904e-25
-3.397632933634096e-25
9.524806982081899e-26
-4.119284206538329e-25
1.229426415174643e-25
-5.607709715683475e-25
-3.160375919705959e-24
-5.277537936249165e-25
6.442003690885136e-06
-0.0001353298471378769
1.291565368447775e-05
-0.0001365307811153781
1.942375453558464e-05
-0.0001384533054096476
2.599149460708426e-05
-0.0001413494472659935
3.264687905823363e-05
-0.0001452945386226919
3.942393653502047e-05
-0.0001503686718041767
4.636549792786338e-05
-0.0001566704317667517
5.353282734053101e-05
-0.0001643364385101596
6.100554262644413e-05
-0.0001735287258813896
6.895624910902054e-05
-0.0001845195479801459
7.745222000704335e-05
-0.0001974925601340541
8.707195080593841e-05
-0.0002127277995090494
8.509675136279673e-05
-0.0002159017136638687
1.242720143498666e-06
-5.274010690191571e-05
-6.139532497188645e-24
2.368715900687096e-24
7.98181628428251e-26
-4.029086390837219e-25
9.886493924761799e-26
-3.072067227984054e-25
5.51104133982229e-26
-2.626515155189977e-25
4.073738754361495e-26
-1.465035100246527e-25
3.730686174809009e-26
-1.18641911771768e-25
3.578188985365166e-26
-1.295639797581324e-25
7.663340085323608e-26
-1.686149186195741e-25
-7.694578034272604e-25
-7.807603217307025e-26
5.501542847068743e-06
-0.000140831308446415
1.101242922308807e-05
-0.0001420415841886464
1.652350677465547e-05
-0.0001439642965187406
2.204287747432873e-05
-0.0001468687284469735
2.757837592424311e-05
-0.0001508299440239733
3.314141307587329e-05
-0.000155931608646202
3.874787014320533e-05
-0.0001622767792477834
4.44271910536607e-05
-0.0001700156392152044
5.022687419568279e-05
-0.0001793282763437942
5.627512572160295e-05
-0.0001905676424678295
6.255941660180786e-05
-0.0002037766418834514
7.023909818526919e-05
-0.0002204053616232292
4.3403836419808e-05
-0.0002038518814285528
0
-1.387122989692974e-05
-6.197700762982367e-27
7.08816949201445e-25
7.452377614892701e-26
-4.453000364184041e-26
5.099829274092104e-26
-2.127596392779496e-25
2.241923028012066e-26
-1.256625923163903e-25
1.281264259378041e-26
-5.738792781456536e-26
1.014399442306066e-26
-3.649499677069483e-26
9.032317153516682e-27
-3.442087550594678e-26
1.674470625500362e-26
-4.061341219053088e-26
-1.3469887351416e-25
-7.013831264734202e-27
4.582254425033938e-06
-0.0001454134511002238
9.149054196559765e-06
-0.000146608271070954
1.368448037506194e-05
-0.0001484996066726317
1.817988044632071e-05
-0.0001513640113706956
2.262348643086297e-05
-0.0001552734292917534
2.700517896456825e-05
-0.0001603131723931619
3.131323775949406e-05
-0.0001665847013446917
3.55411973935012e-05
-0.0001742434533616377
3.969766395344854e-05
-0.0001834845906352869
4.38367013729998e-05
-0.0001947065091602823
4.791667059717303e-05
-0.0002078563931382017
5.00076056938538e-05
-0.0002224938971757141
1.212069965495809e-05
-0.0001441656356883323
0
-7.398674993145008e-07
8.419894446449988e-26
1.345594483907912e-26
4.786385371581685e-26
-5.543518455275382e-28
2.281955290163822e-26
-1.177369508419429e-25
8.037757711761378e-27
-5.602679238514334e-26
3.515874137394005e-27
-2.096896432992741e-26
2.288324117003501e-27
-1.022031831323837e-26
1.792281400732959e-27
-7.873671520219498e-27
2.494518362295173e-27
-8.043371255694549e-27
-1.835389372375929e-26
-1.33374468960517e-28
3.722128328229438e-06
-0.0001491354525058403
7.401887801091102e-06
-0.0001502879049850028
1.102529182851471e-05
-0.0001521228828596357
1.456948860688548e-05
-0.0001549080828780082
1.800724683445914e-05
-0.0001587110554829374
2.131307050469474e-05
-0.0001636188486198493
2.445508364924444e-05
-0.0001697265600578878
2.74015413518879e-05
-0.0001771897585393235
3.014102250804639e-05
-0.0001862239358877646
3.270032290485416e-05
-0.0001972656646810236
3.492330617424034e-05
-0.0002068665374070423
2.950920017205161e-05
-0.0001593438752970138
-7.155621624377408e-07
-3.902170246719786e-05
4.74920134371014e-28
-3.580053245472177e-09
1.080566204617421e-26
-1.278876795016719e-26
2.61965372296134e-26
-1.879276995824943e-26
9.297696596740978e-27
-5.80596265311958e-26
2.694035196487057e-27
-2.326186470543614e-26
9.078098834616627e-28
-7.2680716447271e-27
4.619071325573228e-28
-2.707781216289286e-27
3.074772983379852e-28
-1.60274201952319e-27
3.151913155265771e-28
-1.351000643825884e-27
-2.080548629224484e-27
5.441403723472118e-29
2.974359723072825e-06
-0.0001521097104300743
5.876567648569633e-06
-0.0001531900150204407
8.711542197777385e-06
-0.000154957756777614
1.144975252794149e-05
-0.000157646190033996
1.405712370270901e-05
-0.0001613182916748194
1.650734003386525e-05
-0.000163075662069622
1.857831192307658e-05
-0.0001521687768083302
1.97052760936074e-05
-0.0001323154811043789
1.917145631852708e-05
-0.0001046048635040507
1.586936350010559e-05
-7.042751902285485e-05
9.292054586749966e-06
-1.402529035811423e-06
2.838281707583065e-06
-7.289420708601963e-25
-1.868625347629422e-07
-7.568891985807879e-09
-6.977855027546653e-26
-1.904425880084149e-07
8.406794822132507e-27
0
9.566160639585596e-27
-3.270596901600624e-26
3.262282962583045e-27
-2.829564422152974e-26
8.46997344860016e-28
-9.189042613513553e-27
2.305305691069646e-28
-2.411902786039587e-27
8.885637894109332e-29
-6.988237121810561e-28
4.809579819305475e-29
-3.02831690902435e-28
3.670762168981195e-29
-1.983580806647321e-28
-2.067587499598793e-28
1.133221818986595e-29
1.994589746476837e-06
-6.242214713051957e-05
3.760708743705891e-06
-5.958831004718894e-05
5.276739289587372e-06
-5.459562463592681e-05
6.34318952325544e-06
-4.739696181559459e-05
6.707309180367257e-06
-1.193165860453427e-05
5.998859488307721e-06
-5.811614013197063e-08
4.749010174607622e-06
-3.032154517620847e-10
3.248457597949317e-06
-1.524662597338924e-14
1.727971154320917e-06
2.282611556301385e-27
1.381782652775732e-06
2.193076119426826e-25
-7.171492283370833e-48
-8.58756433875868e-30
8.836445149765926e-27
1.273283558249712e-30
7.122776992154864e-12
-7.576014762800019e-09
2.043154494713114e-08
-2.43251202103265e-06
1.948540635020175e-27
5.251980311792943e-09
3.167168798382404e-27
-4.480725869732853e-26
1.074641306822189e-27
-1.443655794100105e-26
2.572145622486366e-28
-3.527733381791802e-27
5.901456981397694e-29
-7.677519578634452e-28
1.713708407482557e-29
-1.768968303848161e-28
7.114914164317994e-30
-5.526466355172641e-29
4.032769376298978e-30
-2.63841562118771e-29
-1.872214946398692e-29
1.494697725691338e-30
1.809480943604142e-07
2.646425771566275e-23
2.699232809324741e-07