/*--------------------------------*- C++ -*----------------------------------*\
| =========                 |                                                 |
| \\      /  F ield         | OpenFOAM: The Open Source CFD Toolbox           |
|  \\    /   O peration     | Version:  2206                                  |
|   \\  /    A nd           | Website:  www.openfoam.com                      |
|    \\/     M anipulation  |                                                 |
\*---------------------------------------------------------------------------*/
FoamFile
{
    version     2.0;
    format      ascii;
    arch        "LSB;label=32;scalar=64";
    class       volScalarField;
    location    "0.15";
    object      alpha.water_0;
}
// * * * * * * * * * * * * * * * * * * * * * * * * * * * * * * * * * * * * * //

dimensions      [0 0 0 0 0 0 0];

internalField   nonuniform List<scalar> 
2268
(
1
1
1
1
1
1
1
1
1
1
1
1
1
1
1
1
1
1
1
1
1
1
0.9833117938367689
1
1
1
1
1
1
1
1
1
1
1
1
1
1
1
1
1
1
1
1
1
1
0.9825959731893386
1
1
1
1
1
1
1
1
1
1
1
1
1
1
1
1
1
1
1
1
1
1
0.9824780417996973
1
1
1
1
1
1
1
1
1
1
1
1
1
1
1
1
1
1
1
1
1
1
0.9964372930084899
1
1
1
1
1
1
1
1
1
1
1
1
1
1
1
1
1
1
1
1
1
1
1
1
1
1
1
1
1
1
1
1
1
1
1
1
1
1
1
1
1
1
1
1
1
1
1
1
1
1
1
1
1
1
1
1
1
1
1
1
1
1
1
1
1
1
1
1
1
1
1
1
1
1
1
1
1
1
1
1
1
1
1
1
1
1
1
1
0.9729090159130511
0.8672590849468943
1
1
-2.544994961051271e-38
-4.698320310363641e-37
-3.573560184378176e-36
-6.415036539133406e-37
-1.593903184714148e-38
-2.402376904396753e-40
-3.045587866417774e-42
-3.882439685962548e-44
-4.319994230167624e-46
-4.09157258134645e-48
-3.456823812157043e-50
-3.093893668256757e-52
-2.576881614080987e-54
-1.833355896118328e-56
-1.05388645754668e-58
-4.637139646916891e-61
-1.452139319955856e-63
-2.856507014893999e-66
-2.621268212087854e-69
-7.192912697781751e-36
-1.291749968244872e-34
-1.053899610126882e-33
-1.471010324556929e-34
-3.516336307648383e-36
-5.459452025622e-38
-7.701573185769127e-40
-1.093344927017444e-41
-1.363516956905121e-43
-1.512508525688288e-45
-1.585922086172073e-47
-1.668777502529177e-49
-1.586227102772491e-51
-1.272093694366827e-53
-8.196024781871092e-56
-4.03068820715811e-58
-1.409373510626827e-60
-3.097032264663108e-63
-3.17310964116312e-66
-1.052172991742759e-33
-1.672213882517823e-32
-1.383365771944115e-31
-1.535776952292028e-32
-3.66243856435449e-34
-5.897740655944861e-36
-8.84406080800405e-38
-1.288422808041797e-39
-1.653812069522979e-41
-1.906174145052651e-43
-2.117729462046637e-45
-2.352377630888222e-47
-2.349885401806282e-49
-1.974933313516888e-51
-1.331197564116997e-53
-6.84160591058828e-56
-2.498857907818713e-58
-5.736972569243362e-61
-6.149766774774301e-64
-1.059604972940697e-31
-1.416780531783306e-30
-1.037011846334186e-29
-9.468546728317651e-31
-2.356872417526648e-32
-4.083888639281693e-34
-6.638421447074187e-36
-9.979690404258441e-38
-1.312900473077434e-39
-1.558533875658889e-41
-1.816015529190489e-43
-2.111085776749874e-45
-2.201443295858205e-47
-1.928734074614567e-49
-1.354003811996176e-51
-7.241573257425887e-54
-2.750770244811588e-56
-6.567383065159534e-59
-7.327771664380137e-62
-8.311189628035847e-30
-9.354665062861868e-29
-4.690829532080548e-28
-3.716953991413839e-29
-1.020638500430463e-30
-1.992017523276124e-32
-3.607454391971744e-34
-5.695226347339948e-36
-7.726393734631113e-38
-9.418719771455699e-40
-1.143369070338878e-41
-1.38098440869537e-43
-1.495423511454436e-45
-1.361281741673548e-47
-9.932896113922443e-50
-5.520656234747183e-52
-2.178388435035658e-54
-5.401377248747371e-57
-6.262129713412935e-60
-4.654621800360605e-28
-4.594162756519026e-27
-1.325556347576634e-26
-9.577987681574194e-28
-3.057854782246494e-29
-7.02274386343992e-31
-1.466696028744628e-32
-2.497786980787613e-34
-3.555411022066927e-36
-4.479693444231733e-38
-5.637346543328139e-40
-6.998724821403247e-42
-7.793020250749977e-44
-7.319196443435181e-46
-5.526427160500701e-48
-3.183669934843565e-50
-1.302939330010707e-52
-3.35146068595671e-55
-4.032314302016901e-58
-1.731051624544714e-26
-1.604816024968991e-25
-2.398455812578098e-25
-1.669951345141513e-26
-6.331157228060473e-28
-1.816631476601686e-29
-4.469608368357791e-31
-8.481162761977232e-33
-1.301221258531624e-34
-1.730375087186671e-36
-2.266081315032633e-38
-2.857949638692687e-40
-3.223855296248829e-42
-3.08407841978848e-44
-2.386693278892321e-46
-1.41594401610846e-48
-5.985922677725533e-51
-1.593272121968174e-53
-1.986060815895711e-56
-5.419322232514675e-25
-5.51873278189535e-24
-2.828178505826863e-24
-2.001317733555719e-25
-9.220805812627584e-27
-3.458016351393186e-28
-1.008373209495475e-29
-2.211247913396689e-31
-3.783605054167119e-33
-5.429146652064742e-35
-7.477206571970215e-37
-9.55766882305527e-39
-1.077440809500626e-40
-1.030372935132914e-42
-8.024685317225105e-45
-4.83077006932158e-47
-2.087165930530789e-49
-5.708184662224293e-52
-7.339370157118779e-55
1
1
1
1
1
1
1
1
1
1
1
1
1
1
1
1
1
1
0.9253352478630732
0.4478540433597944
0.04559404721592518
0.2881058334085478
1
1
1
1
1
1
1
1
1
1
1
1
1
1
1
1
1
1
0.7892249769616723
0.140335557902271
-4.372018806748119e-19
5.38717768718043e-20
-6.808175921962926e-19
0.3809878046600271
1
1
1
1
1
1
1
1
1
1
1
1
1
1
1
1
0.7703048202448213
0.1061492824642359
1.193827714248048e-18
-4.499432485460459e-20
-6.291319841615188e-20
-1.087686404788329e-19
1.762605597590868e-20
1
1
1
1
1
1
1
1
1
1
1
1
1
1
1
0.8743530448406839
0.169326973179407
2.775992910497011e-18
4.838431735359003e-36
-2.121900418225114e-20
-3.153576988144917e-20
-4.993807109686323e-20
-3.950320216176665e-20
1
1
1
1
1
1
1
1
1
1
1
1
1
1
1
0.3599595354881762
3.698736745171485e-18
1.680574183114252e-35
-1.591137900174581e-20
-1.713525797294877e-20
-1.829020558029901e-20
-3.084599523346983e-20
-4.803645796146684e-20
1
1
1
1
1
1
1
1
1
1
1
1
1
1
0.6922756476793888
0.04403681992255155
-5.740227879996327e-20
-1.055910057620216e-20
-9.347707375050365e-21
-9.435680278408141e-21
-1.046368777639776e-20
-1.425793769177607e-20
-3.998324684144057e-20
1
1
1
1
1
1
1
1
1
1
1
1
1
1
0.2599220614728893
1.517011181780045e-19
-1.956309488723955e-20
-7.162970595330944e-21
-4.469343582245375e-21
-4.405999424098705e-21
-4.891290127873771e-21
-6.012245319578037e-21
-2.419166012334005e-20
1
1
1
1
1
1
1
1
1
1
1
1
1
0.6643902856927333
0.03870201523488282
1.405899844448419e-19
-1.592586709166999e-22
-3.722882391138627e-21
-2.068095845817759e-21
-1.783956232570838e-21
-1.903139549738275e-21
-2.338588178515603e-21
-9.709206491564043e-21
1
1
1
1
1
1
1
1
1
1
1
1
1
0.2915196896159751
-1.148807875778302e-18
-1.804367032859068e-20
-2.987724863245387e-21
-1.830283289646117e-21
-8.861358096082053e-22
-6.314323517044346e-22
-6.200840463877151e-22
-7.403626298026325e-22
-2.614476615129295e-21
1
1
1
1
1
1
1
1
1
1
1
1
0.8782898621809589
0.09803635317894002
-4.956024158555592e-21
-4.817703702004065e-22
-1.715751725267527e-21
-8.57633070553125e-22
-3.506668193119699e-22
-1.990288352672977e-22
-1.708516543290691e-22
-1.871864060072552e-22
-5.045515481410673e-22
1
1
1
1
1
1
1
1
1
1
1
1
0.6435509639584741
0.02455881421995558
-1.968850085447532e-20
-1.787665129829828e-36
-9.021702231270528e-22
-3.809023518661486e-22
-1.305777034653232e-22
-5.764812642215567e-23
-4.064817820434128e-23
-3.891364839207224e-23
-7.49982038632071e-23
1
1
1
1
1
1
1
1
1
1
1
0.9851366097161662
0.3467109435285597
0.001323549966950091
-4.749448985985697e-22
-1.883643801686049e-22
-4.474241047800742e-22
-1.590029361942728e-22
-4.624911730533369e-23
-1.589077015374271e-23
-8.638269320282152e-24
-6.841410429707605e-24
-9.17100720146593e-24
1
1
1
1
1
1
0.9993044605442238
0.9853304886383467
0.9418522827313902
0.8469519222774531
0.6758896068192259
0.3773290473980953
0.05915626188135237
-1.789507132037718e-19
-1.07346232221728e-23
-2.900747484552185e-22
-2.082360324795113e-22
-6.204854557348261e-23
-1.554344559117091e-23
-4.259332508489468e-24
-1.711066137678617e-24
-1.049761147083197e-24
-9.746536091576911e-25
0.8624043145938055
0.8494875619517884
0.825538316189399
0.7866679527042043
0.7292250033321488
0.6450951364905012
0.5124157573374226
0.3677959105568946
0.2266707108267404
0.09951796670040743
0.002841217898696905
6.344238392405189e-21
1.028602443387035e-19
0.004682172897274874
3.468970232962902e-05
-3.246112675709985e-22
-9.693223588943659e-23
-2.300094507302636e-23
-4.941445157199951e-24
-1.110273943253743e-24
-3.281491265594627e-25
-1.463718468338036e-25
-9.39798692024098e-26
0.1144769766949006
0.1025806975549187
0.08267201004632486
0.05617979408955079
0.02604631770749755
1.885809988713554e-18
2.302232752192102e-21
0
-1.318518329166092e-23
-1.191770135635844e-21
3.926740749055534e-26
-6.240239031364789e-42
1.823138789336212e-05
0.01620561053041385
0.0003566814833778183
-1.037519614105e-22
-4.726248896218536e-23
-8.356965120386699e-24
-1.494013511174472e-24
-2.782076861491591e-25
-6.200888439110722e-26
-1.939916554106662e-26
-8.52239456318384e-27
-1.576480533716306e-19
-1.566837453810987e-19
-1.070342700453065e-20
-2.786854074654447e-20
-8.429344159919207e-35
-9.917964326849663e-31
1.735782576003322e-13
6.144086660211537e-11
-1.406716143813978e-26
-1.598989806857465e-26
2.456854121520623e-08
-6.359136501441947e-26
0.0004796380219941067
0.01633677798232337
0.0003025363537124486
-2.461977501124677e-23
-2.651580559042851e-23
-3.051717747285787e-24
-4.343739912104848e-25
-6.632797923918905e-26
-1.147550754788493e-26
-2.532206984091909e-27
-7.52938142010922e-28
-2.563745051046283e-19
-2.537907924859204e-19
-1.609106669725943e-20
-2.396809696137333e-20
2.443033269254034e-17
1.049075659277854e-13
2.082815140299686e-11
4.013230780232071e-10
2.488748256654048e-09
1.944726001707529e-08
3.454887632622448e-08
9.356261268885404e-22
0.001256987630613757
0.0148422577088138
-1.282810200316757e-21
-5.450756658914206e-24
-1.743939170610906e-23
-1.125959211875513e-24
-1.226321790695547e-25
-1.498619108970131e-26
-2.044283351437608e-27
-3.292250042755847e-28
-6.690424710712229e-29
-4.539192463506418e-24
-2.311728735446615e-22
-3.504220679154265e-21
2.022304853991093e-19
8.67789761004099e-15
4.971459843463419e-12
1.291175914732493e-10
5.523006352259853e-10
1.869729648307222e-08
6.016721919088782e-08
3.335514843266687e-08
6.528141566813331e-05
0.001208473140894151
0.0004461070734672056
-4.699703716354513e-23
-1.119057519287584e-23
-1.36119953427729e-23
-4.1333727699255e-25
-3.364803454095519e-26
-3.208423893035588e-27
-3.450854508514889e-28
-4.20773477260716e-29
-6.066772554494152e-30
-4.291501239907182e-24
-1.338399749100892e-22
1.369741558343331e-22
2.530356684104755e-17
1.892186796565679e-13
2.557700786924483e-11
2.23901336247362e-10
1.060225629998921e-09
2.747389591945682e-08
3.760854142898843e-08
2.324345209234084e-06
0.0001159331089314045
0.0001099840756651955
-1.835919082891647e-24
-5.386211463973033e-23
-2.144193497685953e-23
-1.240456340789589e-23
-1.463517991925652e-25
-8.840063805221948e-27
-6.491509265431389e-28
-5.461626638512632e-29
-5.163279696461344e-30
-5.543792979671535e-31
7.158256872609e-33
7.298312527887158e-27
1.672249886823806e-21
2.131242446210106e-16
5.436573259210862e-13
3.658398377598694e-11
2.477089231640544e-10
2.426880510758406e-09
1.231765555086046e-08
5.147034181458233e-09
6.635386492789765e-06
8.158946379886363e-05
8.645566337699971e-05
2.867853257673466e-06
-1.771133873595837e-23
-2.711756958856391e-23
-1.139899928351752e-23
-4.811495804126728e-26
-2.155170671305969e-27
-1.226453919816955e-28
-8.034418447140726e-30
-5.95342126120974e-31
-4.949796842843814e-32
4.074922976524212e-32
1.693220796531926e-26
3.213113956724733e-21
3.416496736257967e-16
5.867419481212722e-13
3.284637476847358e-11
2.202676508945949e-10
8.469888659471392e-10
2.121104335333084e-09
8.993132168114781e-25
1.153224147911567e-06
0.0001225012086415498
0.0001816311128139371
0.0001448459709345593
-4.812010767638575e-24
-2.433579909232076e-23
-8.893610124713494e-24
-1.415278079612454e-26
-4.681524660517501e-28
-2.112569216547738e-29
-1.085429480423961e-30
-6.344727159991687e-32
-4.18134372315795e-33
1.325634334076376e-45
5.762121172992284e-27
1.125901412571065e-21
1.346058709142851e-16
2.755402132842798e-13
1.386193364986974e-11
4.916363706905485e-11
3.111566534726378e-11
2.769028503743152e-31
-8.94458965604472e-32
2.844934824102103e-23
4.187812875762337e-06
4.292508842057438e-05
5.341694148518635e-05
3.580391692797637e-06
-1.580219245703481e-23
-5.269402848417255e-24
-3.601088413687913e-27
-8.691993286879109e-29
-3.211628913006247e-30
-1.321677216410964e-31
-6.160185572175076e-33
-3.260049044609315e-34
-2.606987617005699e-31
-1.285479139848208e-29
-2.769993237184385e-28
-3.391448972194311e-27
-2.559543480310065e-26
-1.189769664168143e-25
-2.962073627122185e-25
-1.270290579210086e-31
2.765048096887465e-14
3.38702130419652e-14
-1.805017075187254e-23
-1.492797897900638e-23
1.286522125286286e-24
2.749874274062077e-07
1.099511375522639e-06
-6.593233930195355e-24
-2.207944909050322e-24
-7.677825564059553e-28
-1.327955928324652e-29
-4.162434221945793e-31
-1.414943980042964e-32
-5.3613532967373e-34
-2.303801149073442e-35
-1.591375285090769e-31
-8.311396283482861e-30
-1.945029093155433e-28
-2.685812718784996e-27
-2.430825503775111e-26
-1.518565308574226e-25
-6.749663865587776e-25
-2.183849098288374e-24
-5.263901013713433e-24
-9.701298909098135e-24
-1.401313017366014e-23
-1.605312280111004e-23
-1.41550646347219e-23
-7.981815921596783e-24
-6.933545730359541e-25
-2.526426284200978e-24
-6.19519827848885e-25
-1.33082224829791e-28
-1.61563306990546e-30
-4.456127837756538e-32
-1.296159132581682e-33
-4.102340550678926e-35
-1.453165195144066e-36
-5.079465163048197e-33
-2.910840197159723e-31
-7.541909780671617e-30
-1.167690990225865e-28
-1.204914472598499e-27
-8.767630704684886e-27
-4.658108965748883e-26
-1.853580054797044e-25
-5.648238232063448e-25
-1.345877352587184e-24
-2.553757817253581e-24
-3.899491568245521e-24
-4.767682504826922e-24
-4.50243891039378e-24
-2.921087680483937e-24
-1.143804090237672e-24
-1.118424180940226e-25
-1.823928547837298e-29
-1.524760439403146e-31
-3.840551531252984e-33
-9.906974529748525e-35
-2.701875125361669e-36
-8.056481861419438e-38
-3.750410203501327e-35
-2.398233496080753e-33
-7.004387983444594e-32
-1.239535122580869e-30
-1.487934014405695e-29
-1.286826026291001e-28
-8.328686205470751e-28
-4.145609320321032e-27
-1.621538619216409e-26
-5.074043080245441e-26
-1.288045060029004e-25
-2.67371384964812e-25
-4.528590158344306e-25
-6.134880121194375e-25
-6.282283579084132e-25
-3.554909684122033e-25
-1.26918589329431e-26
-1.921617407047839e-30
-1.09464794909412e-32
-2.61347084788681e-34
-6.18791104174004e-36
-1.500796754911584e-37
-3.863267446240575e-39
-4.673003679231775e-38
-3.911327365419833e-36
-1.502573496817409e-34
-3.519041311367459e-33
-5.626167193911901e-32
-6.519785905533838e-31
-5.682747087034583e-30
-3.821878837809329e-29
-2.021970686330341e-28
-8.546399361589764e-28
-2.921782259090665e-27
-8.145372069847694e-27
-1.853933686577126e-26
-3.406482045298065e-26
-4.879617620081661e-26
-4.988445163016886e-26
-8.946374214746476e-28
-1.507297397180846e-31
-5.892870532070737e-34
-1.38415325695023e-35
-3.107879588617029e-37
-6.907703393682203e-39
-1.577047242020806e-40
-1.500639345890789e-40
-1.404665197244289e-38
-6.061219067748177e-37
-1.604646323002555e-35
-2.923180546344059e-34
-3.896399176887719e-33
-3.948283633126516e-32
-3.122852280934601e-31
-1.966306096388853e-30
-1.000995513093083e-29
-4.170386758084149e-29
-1.434012896492058e-28
-4.081391690114643e-28
-9.551664371763243e-28
-1.794871621025964e-27
-2.539643947297117e-27
-3.854214209788514e-29
-8.50118362258437e-33
-2.353702555290892e-35
-5.645094503920789e-37
-1.240102332286218e-38
-2.597385032948779e-40
-5.401435591281115e-42
-1.20724200584438e-43
-1.269875847206917e-41
-6.180188898218262e-40
-1.854627024563477e-38
-3.852829886597774e-37
-5.896712215442243e-36
-6.912581190942883e-35
-6.375797044125386e-34
-4.720381917283655e-33
-2.849577690211619e-32
-1.420146264377527e-31
-5.894760290261516e-31
-2.044830564174253e-30
-5.897143408926677e-30
-1.384373280154361e-29
-2.432634337997721e-29
-9.792469949935947e-31
-3.332083590159917e-34
-6.918356048300107e-37
-1.758963499506255e-38
-3.896434801019817e-40
-7.892224977683732e-42
-1.53302541378734e-43
-8.564228525508226e-51
-8.037106233706637e-49
-3.599793552361227e-47
-1.051720991981395e-45
-2.322487188153707e-44
-4.252293407878077e-43
-6.821714997176345e-42
-9.804223017032015e-41
-1.26296969552885e-39
-1.448512112234061e-38
-1.471733043438004e-37
-1.323343379847895e-36
-1.055444497773101e-35
-7.501828963569131e-35
-4.780916849278276e-34
-2.73296518336423e-33
-1.373737670575805e-32
-8.803631353456247e-36
-1.486435803512128e-38
-4.162269092969022e-40
-9.577139341533256e-42
-1.921930226106173e-43
-3.568676310087523e-45
-1.791042090661963e-54
-2.594874699791449e-52
-1.773221064479028e-50
-7.683437398837162e-49
-2.394228122083712e-47
-5.779467785843741e-46
-1.138250883667357e-44
-1.900446810343433e-43
-2.763800801762813e-42
-3.559794372823804e-41
-4.09344676148357e-40
-4.212564359723375e-39
-3.881325745607882e-38
-3.208900701246439e-37
-2.392202453616339e-36
-1.599982328186651e-35
-9.259641847625387e-35
-1.523319147758173e-37
-2.319681484837591e-40
-7.44311295776026e-42
-1.832042552490072e-43
-3.726915191443844e-45
-6.756065976023199e-47
-7.548652217002935e-58
-1.229830659204277e-55
-9.407522817292122e-54
-4.537318866284206e-52
-1.562277054474326e-50
-4.130654025585624e-49
-8.832629976694044e-48
-1.591557998657061e-46
-2.497935532509275e-45
-3.497414742967414e-44
-4.424660945156886e-43
-5.069803766992684e-42
-5.247676077315582e-41
-4.917257502015363e-40
-4.203071100577867e-39
-3.204577314488772e-38
-1.977270873227905e-37
-1.673118403662866e-39
-2.611859861065319e-42
-1.001387519463334e-43
-2.715547759864672e-45
-5.723553495255728e-47
-1.032570443401841e-48
-1.585753240576915e-62
-2.910118759710412e-60
-2.48036067204214e-58
-1.316820767057776e-56
-4.912898816004485e-55
-1.377736665066661e-53
-3.038186877984979e-52
-5.461995397251955e-51
-8.279706940101802e-50
-1.092843385392212e-48
-1.284943587367499e-47
-1.346526305049773e-46
-1.224485037721958e-45
-9.256384886110135e-45
-5.618477759078961e-44
-2.843312208374999e-43
-1.536421785938021e-42
-1.124852339079235e-41
-2.106723503367159e-44
-1.009181258558992e-45
-3.105560660489142e-47
-6.925067806129578e-49
-1.265274733274304e-50
-1.773290288658453e-70
-7.095976633999801e-68
-1.32125397506051e-65
-1.535947307238364e-63
-1.257646506970274e-61
-7.754969109116099e-60
-3.760746806288037e-58
-1.4795934690717e-56
-4.836276848904052e-55
-1.338204829234136e-53
-3.181239992668263e-52
-6.573308641269653e-51
-1.192338877972333e-49
-1.919151805148234e-48
-2.77757112897727e-47
-3.648865622833913e-46
-4.299798327177273e-45
-4.398914666201919e-44
-1.207116469122256e-46
-7.581082265157047e-48
-2.726997784469131e-49
-6.563588702359623e-51
-1.234071318268854e-52
-3.898397957457997e-74
-1.784564362389447e-71
-3.796683076689467e-69
-5.038023144524545e-67
-4.705582688304504e-65
-3.309548254759912e-63
-1.831840715607833e-61
-8.236789025206912e-60
-3.081753273633158e-58
-9.770581357899768e-57
-2.660724093509011e-55
-6.287609180360655e-54
-1.301901964131783e-52
-2.393052331171974e-51
-3.973712347010583e-50
-6.012930347053314e-49
-8.084729762248878e-48
-9.208403530166348e-47
-4.863863777473418e-49
-4.219681213492965e-50
-1.827322947132208e-51
-4.838823787113159e-53
-9.499288593070894e-55
-4.661792266092298e-78
-2.441824727395379e-75
-5.920699263988966e-73
-8.925574117043655e-71
-9.452091017993922e-69
-7.53359199472704e-67
-4.729847306065484e-65
-2.416668358285059e-63
-1.028957359353965e-61
-3.711691148062343e-60
-1.146851206959965e-58
-3.060539164503514e-57
-7.129260015113137e-56
-1.477503547778134e-54
-2.795383470046605e-53
-4.847481350074883e-52
-7.297610595636243e-51
-8.825834972768426e-50
-1.361494268049036e-51
-1.726170662337756e-52
-9.265344539078801e-54
-2.748315118031058e-55
-5.70799776132117e-57
-2.394836249272552e-82
-1.429940140256785e-79
-3.918094197270471e-77
-6.637240414136734e-75
-7.88175776914102e-73
-7.054867866778651e-71
-4.994242081160018e-69
-2.889274113253144e-67
-1.394514034575761e-65
-5.676762866818101e-64
-1.958412419168424e-62
-5.755501483465466e-61
-1.4640109650195e-59
-3.349563142572317e-58
-7.228753289928336e-57
-1.441178479462048e-55
-2.30258348315314e-54
-2.446825742157409e-53
-2.609710883563964e-54
-5.131319579998425e-55
-3.510957979065989e-56
-1.186188311145443e-57
-2.637232661529853e-59
-2.412638015599038e-87
-1.598281675502329e-84
-4.8404612911454e-82
-9.076350651506134e-80
-1.200914693989365e-77
-1.208298216750512e-75
-9.66215864557028e-74
-6.275159040374984e-72
-3.328408369839479e-70
-1.436477125246943e-68
-5.012636972770463e-67
-1.416752506814956e-65
-3.391337332116014e-64
-8.123232656267229e-63
-2.328781037403925e-61
-6.471070010095071e-60
-1.196151199979338e-58
-1.061406569558477e-57
-3.362239336819619e-57
-1.089378909005922e-57
-9.754271716708293e-59
-3.810575577325389e-60
-9.163267695158485e-62
-1.751953226869165e-94
-1.595219957932769e-91
-6.707799940155611e-89
-1.757844738876056e-86
-3.253961803041499e-84
-4.564928060792252e-82
-5.077842834707776e-80
-4.620523846458616e-78
-3.516958643961337e-76
-2.277141782049073e-74
-1.271454647145473e-72
-6.203234868949318e-71
-2.685646337970524e-69
-1.051996986022749e-67
-3.808839943093804e-66
-1.289512942283147e-64
-4.028223613547517e-63
-1.129500413558947e-61
-2.835898329856185e-60
-1.605169689084753e-60
-1.925904575830646e-61
-8.814731134373551e-63
-2.312965995124429e-64
-1.820469654827005e-98
-1.830460165931587e-95
-8.494303502909045e-93
-2.457323257126345e-90
-5.023376426483126e-88
-7.781968169711994e-86
-9.549621829270936e-84
-9.566324888410635e-82
-7.99316536405024e-80
-5.662367563743057e-78
-3.448052215685216e-76
-1.830489730665497e-74
-8.619764573711144e-73
-3.679684211061622e-71
-1.456911285304711e-69
-5.399675914251315e-68
-1.836990199052681e-66
-5.560855432432724e-65
-1.498837460405534e-63
-1.559270741131482e-63
-2.558177563331693e-64
-1.387065527647776e-65
-4.000353529721342e-67
-1.182568600260239e-102
-1.308281791069877e-99
-6.677402017608596e-97
-2.125542702496259e-94
-4.781844803559958e-92
-8.144578972281739e-90
-1.096516827600838e-87
-1.201458412126803e-85
-1.094142973031102e-83
-8.417381076319127e-82
-5.54928132758725e-80
-3.183913231401634e-78
-1.621241489640737e-76
-7.506128760086348e-75
-3.236265332753461e-73
-1.307029300089643e-71
-4.818017384054198e-70
-1.568068808055107e-68
-4.528730542426373e-67
-8.981604007478981e-67
-2.048989712400841e-67
-1.327936955286955e-68
-4.232624906379359e-70
-2.588447487404782e-107
-3.195787521762713e-104
-1.82231703667175e-101
-6.481673092105503e-99
-1.627504124172155e-96
-3.086648397449235e-94
-4.611957480001365e-92
-5.586919617473011e-90
-5.603463404430201e-88
-4.73117493026526e-86
-3.414620580924955e-84
-2.143247186514483e-82
-1.196227388217462e-80
-6.097774726630363e-79
-2.908968505286308e-77
-1.300570451164309e-75
-5.276041080937568e-74
-1.877906711722582e-72
-5.932870383586069e-71
-2.297266920279418e-70
-7.41206244392771e-71
-5.790468454247709e-72
-2.045082289227982e-73
0.4499277526889284
-2.947300054364872e-23
-1.235935164529507e-22
-2.338578402131365e-22
0.2583016245759344
0.02454822671375982
2.375982004231071e-20
-1.482201621846073e-20
0.003041596681834185
0.00527819645383349
0.0007558992316874842
-8.833410944633241e-23
-7.890806165127316e-20
-1.111688828525855e-20
4.199134860186677e-05
2.194706388524608e-06
-7.008142459062154e-20
-3.554440985898332e-20
9.581523646506584e-23
7.754818145914144e-09
-4.512593844849817e-20
-3.440781588072066e-20
-2.085611733463146e-20
-1.582420121769771e-20
-2.42581460694183e-20
-1.87404779040003e-20
-1.171569655542311e-20
-6.137258208859626e-21
-8.857597817352078e-21
-6.082494417184896e-21
-3.297345177290208e-21
-1.447750340390446e-21
-2.182635772247943e-21
-1.33090602064789e-21
-6.376580885516486e-22
-2.503898124719951e-22
-3.881697181552492e-22
-2.142326306590111e-22
-9.320291272454324e-23
-3.345111623948191e-23
-5.339301449605991e-23
-2.707463785312432e-23
-1.087275597116997e-23
-3.612299871028162e-24
-6.057185383638493e-24
-2.831341839041803e-24
-1.05590761999058e-24
-3.252125311047645e-25
-5.924417109918474e-25
-2.565959188281566e-25
-8.782969904880494e-26
-2.490619241120089e-26
-5.158264842613355e-26
-2.057845962437252e-26
-6.470039212916818e-27
-1.67441385553367e-27
-4.101004833483236e-27
-1.490209193237051e-27
-4.28319728069131e-28
-1.00959947979242e-28
-3.053035855150031e-28
-9.95511073461634e-29
-2.600232695215264e-29
-5.572811527304949e-30
-2.188644303948419e-29
-6.290639384359728e-30
-1.48237051339433e-30
-2.884580880998653e-31
-1.54817787139347e-30
-3.855650851659749e-31
-8.128940808215354e-32
-1.43335089992334e-32
-1.089723397485052e-31
-2.327399500431668e-32
-4.356679422411898e-33
-6.938837450450374e-34
-7.52959610047695e-33
-1.378280628752376e-33
-2.280052159938505e-34
-3.269021024108724e-35
-4.969875521714794e-34
-7.839021082769246e-35
-1.144842521575059e-35
-1.474695538839218e-36
-3.047963587014887e-35
-4.166299923830686e-36
-5.378101660098282e-37
-6.223986292434125e-38
-1.700866930330138e-36
-2.02112931091408e-37
-2.309613127694797e-38
-2.404409394857191e-39
-8.516715936983137e-38
-8.804864663683537e-39
-8.914479855942753e-40
-8.360250361306934e-41
-3.789531115471377e-39
-3.409312697989099e-40
-3.05828339219557e-41
-2.586052419367854e-42
-1.485640160454784e-40
-1.165151411726463e-41
-9.259052104147741e-43
-7.060332332541056e-44
-5.084632008373044e-42
-3.492767276090039e-43
-2.460583933840825e-44
-1.691548654238768e-45
-1.503414696521323e-43
-9.119619609101575e-45
-5.710179869131556e-46
-3.539055105849412e-47
-3.797249362219673e-45
-2.056577830582634e-46
-1.150259535506479e-47
-6.433686448370334e-49
-8.10035928032084e-47
-3.967249508765581e-48
-1.996736090186295e-49
-1.010439563075343e-50
-1.443702255245418e-48
-6.479126767062258e-50
-2.961539534984836e-51
-1.361683546764244e-52
-2.127971141635676e-50
-8.863581175779353e-52
-3.717166533486882e-53
-1.561905662244817e-54
-2.568735540232802e-52
-1.004799262064053e-53
-3.906820901466931e-55
-1.5106323081425e-56
-2.514312621935111e-54
-9.333715334197042e-56
-3.398808353279402e-57
-1.218538305028267e-58
-1.973821371927706e-56
-7.01772986314792e-58
-2.41578064281647e-59
-8.092826415676656e-61
-1.226506417600468e-58
-4.209457887272076e-60
-1.381379096620798e-61
-4.35649072617951e-63
-5.930053224914021e-61
-1.977733919151393e-62
-6.232316295069674e-64
-1.863281650087545e-65
-2.177858424514606e-63
-7.09723309536079e-65
-2.16100936936191e-66
-6.163174094573673e-68
-5.858790762580816e-66
-1.87398944981798e-67
-5.541735293384672e-69
-1.515891649409447e-70
-1.087134268690357e-68
-3.425226511875052e-70
-9.878122649549034e-72
-2.603504263171462e-73
-1.240536994610144e-71
-3.861019615405086e-73
-1.089620447443322e-74
-2.777965111569244e-76
-6.502065443513844e-75
-2.003932881992488e-76
-5.55195614579719e-78
-1.376081711263694e-79
-2.911111626640014e-22
-1.69176784717107e-22
-2.192105098186759e-23
-1.677335919915108e-24
-9.531717550621504e-26
-4.554441088766885e-27
-1.626841905556622e-28
-4.35856706406776e-30
-8.874817270895374e-32
-1.497826554754055e-33
-2.299503556542036e-35
-3.073982269912519e-37
-3.482564696717815e-39
-3.27986460012626e-41
-2.501270957245837e-43
-1.480763589117935e-45
-6.350048153972345e-48
-1.741513912976925e-50
-2.265388329514788e-53
-5.439469582176566e-21
-1.126963820027774e-21
-1.609997522573774e-22
-1.629266034861747e-23
-1.217326894582348e-24
-6.958266502636199e-26
-3.111563502316753e-27
-1.10392886269158e-28
-3.132165051954765e-30
-7.121764125149939e-32
-1.287968268173643e-33
-1.849618556316852e-35
-2.098650315783771e-37
-1.860554688302372e-39
-1.263525629116588e-41
-6.356891694921594e-44
-2.235480585600546e-46
-4.908181025760247e-49
-5.045657473458965e-52
-1.197400830408352e-20
-4.618848499461826e-21
-7.549810903473073e-22
-7.819028842368615e-23
-5.740582706018323e-24
-3.099034429411571e-25
-1.261696911408908e-26
-3.945189894985993e-28
-9.617625134342434e-30
-1.841908613418974e-31
-2.795500856894459e-33
-3.379066817239919e-35
-3.251691755620123e-37
-2.475008230041045e-39
-1.468636051784396e-41
-6.611282281247923e-44
-2.144344190743924e-46
-4.502374102619201e-49
-4.605245352634142e-52
-1.11914605979951e-25
-4.049710824026031e-21
-7.267716241752624e-22
-7.560318017052533e-23
-5.400808668896673e-24
-2.732948291532951e-25
-1.014359440693477e-26
-2.845456429423101e-28
-6.185581719495552e-30
-1.060833392039106e-31
-1.451089923036175e-33
-1.592562854725092e-35
-1.404529885305633e-37
-9.919855819206635e-40
-5.549682396851191e-42
-2.399958045227754e-44
-7.622374446346614e-47
-1.592168877653071e-49
-1.634800340847033e-52
-1.093164283738932e-20
-2.237226799127993e-21
-3.080109340756305e-22
-2.907352458503144e-23
-1.906925174900189e-24
-8.977044001488169e-26
-3.143633743917645e-27
-8.439937485280281e-29
-1.757082323626415e-30
-2.86958722058977e-32
-3.721742543361675e-34
-3.872176287625638e-36
-3.253260134941762e-38
-2.210316085641531e-40
-1.205037005787357e-42
-5.143313709428428e-45
-1.625690602882778e-47
-3.383502907240974e-50
-3.442315537600471e-53
-4.385574665461559e-21
-7.228479920322301e-22
-8.37060503203811e-23
-6.936810527772013e-24
-4.183029354205608e-25
-1.862528038991662e-26
-6.217498860305616e-28
-1.58165957154527e-29
-3.11611445029331e-31
-4.829550770239587e-33
-5.974988673679426e-35
-5.977017078660542e-37
-4.880900397810844e-39
-3.263182097017653e-41
-1.768906288478937e-43
-7.541104778778408e-46
-2.373455031416369e-48
-4.874882649457742e-51
-4.838541726067301e-54
-1.192413473241908e-21
-1.650783687627925e-22
-1.658438058872421e-23
-1.225045074215498e-24
-6.710694893526148e-26
-2.750920061409928e-27
-8.539843103767251e-29
-2.03687251104522e-30
-3.79284805895325e-32
-5.606398007356584e-34
-6.687680263503353e-36
-6.533579796827402e-38
-5.27910979173992e-40
-3.526174911583627e-42
-1.914680864679111e-44
-8.130936689568135e-47
-2.520906634745966e-49
-5.036810156018534e-52
-4.808877100672132e-55
-2.347401783558932e-22
-2.794406208917683e-23
-2.470235693530442e-24
-1.630779406035623e-25
-8.079276876291656e-27
-3.028600068270832e-28