/*--------------------------------*- C++ -*----------------------------------*\
| =========                 |                                                 |
| \\      /  F ield         | OpenFOAM: The Open Source CFD Toolbox           |
|  \\    /   O peration     | Version:  2206                                  |
|   \\  /    A nd           | Website:  www.openfoam.com                      |
|    \\/     M anipulation  |                                                 |
\*---------------------------------------------------------------------------*/
FoamFile
{
    version     2.0;
    format      ascii;
    arch        "LSB;label=32;scalar=64";
    class       volScalarField;
    location    "0.15";
    object      alpha.water;
}
// * * * * * * * * * * * * * * * * * * * * * * * * * * * * * * * * * * * * * //

dimensions      [0 0 0 0 0 0 0];

internalField   nonuniform List<scalar> 
2268
(
1
1
1
1
1
1
1
1
1
1
1
1
1
1
1
1
1
1
1
1
1
1
0.9848306650044013
1
1
1
1
1
1
1
1
1
1
1
1
1
1
1
1
1
1
1
1
1
1
0.9830831544526902
1
1
1
1
1
1
1
1
1
1
1
1
1
1
1
1
1
1
1
1
1
1
0.9830199659992944
1
1
1
1
1
1
1
1
1
1
1
1
1
1
1
1
1
1
1
1
1
1
0.9938608301012599
1
1
1
1
1
1
1
1
1
1
1
1
1
1
1
1
1
1
1
1
1
1
1
1
1
1
1
1
1
1
1
1
1
1
1
1
1
1
1
1
1
1
1
1
1
1
1
1
1
1
1
1
1
1
1
1
1
1
1
1
1
1
1
1
1
1
1
1
1
1
1
1
1
1
1
1
1
1
1
1
1
1
1
1
1
1
1
1
0.9975319465279168
1
1
1
-3.28463437662871e-38
-5.416279770411182e-37
-4.871263125932312e-36
-1.527206598316763e-36
-4.11375522412451e-38
-5.77367993199711e-40
-6.60388388072733e-42
-7.307826878548139e-44
-8.197510209484898e-46
-7.908831359965879e-48
-6.578204995873964e-50
-5.488209547561306e-52
-4.65471868096541e-54
-3.465675820903093e-56
-2.096415790990183e-58
-9.714108968248345e-61
-3.201663087423272e-63
-6.622365595443103e-66
-6.380039073425575e-69
-9.271954172724108e-36
-1.513722301801188e-34
-1.547378611873476e-33
-3.461397404331635e-34
-8.925876795733586e-36
-1.288679943796356e-37
-1.591698754101663e-39
-2.037314923920667e-41
-2.543548413698086e-43
-2.834733064485439e-45
-2.901000112902591e-47
-2.993111071786429e-49
-2.930880039506615e-51
-2.462525701085539e-53
-1.668826207097161e-55
-8.63649823702589e-58
-3.176067257880582e-60
-7.334149818456922e-63
-7.883700974800201e-66
-1.349079111569234e-33
-1.999425474810968e-32
-2.154139546017454e-31
-3.510296176632079e-32
-9.016935575727259e-34
-1.367817495644334e-35
-1.80549320705703e-37
-2.42676052614391e-39
-3.101488684383028e-41
-3.561025438189048e-43
-3.812230781659066e-45
-4.168257515095468e-47
-4.287393089443366e-49
-3.768904153339562e-51
-2.667716527092101e-53
-1.440581235905421e-55
-5.525510212155799e-58
-1.330933040670869e-60
-1.494243244199898e-63
-1.347024253877749e-31
-1.698614810382287e-30
-1.682349767622202e-29
-2.068117315195417e-30
-5.526316036351131e-32
-9.160252608040767e-34
-1.322438417906758e-35
-1.9033162488335e-37
-2.492837384475095e-39
-2.928033776527481e-41
-3.243405596188586e-43
-3.715529017082819e-45
-3.979646719164682e-47
-3.636095594226244e-49
-2.673756436771922e-51
-1.499462990027076e-53
-5.971421738731541e-56
-1.493412292004258e-58
-1.742472642756234e-61
-1.045204477374896e-29
-1.071760105276322e-28
-7.751537937321437e-28
-7.658405667340824e-29
-2.233450390692908e-30
-4.225991518666828e-32
-6.903930540610417e-34
-1.092943251378153e-35
-1.487216190138621e-37
-1.791116960633862e-39
-2.042446063164385e-41
-2.432994842075291e-43
-2.695220884714414e-45
-2.54735331506859e-47
-1.940026919546968e-49
-1.127628121041319e-51
-4.655569863913339e-54
-1.207317049020888e-56
-1.461677720703759e-59
-5.788560420189507e-28
-4.923571012859436e-27
-2.180797027488555e-26
-1.843955643474012e-27
-6.129630236000865e-29
-1.387136213641755e-30
-2.718146299162686e-32
-4.769106187262546e-34
-6.894654075537958e-36
-8.625320089975501e-38
-1.017053343027842e-39
-1.245672592764859e-41
-1.411716703837858e-43
-1.368410104837665e-45
-1.072927956263076e-47
-6.439056644192997e-50
-2.749717809937486e-52
-7.383100992881289e-55
-9.26362226859538e-58
-2.145154243202193e-26
-1.620109783399711e-25
-3.833179783586091e-25
-2.979331691325595e-26
-1.153380558916406e-27
-3.285134228181129e-29
-8.017514805744772e-31
-1.589973793682388e-32
-2.513245480491266e-34
-3.343981459500104e-36
-4.152088164588973e-38
-5.184436875441959e-40
-5.92926778813099e-42
-5.813991086798236e-44
-4.640486011450053e-46
-2.851992349050347e-48
-1.252811807877184e-50
-3.470672094918175e-53
-4.503012394929307e-56
-7.161086114117812e-25
-5.301024957181687e-24
-4.278276862439572e-24
-3.292794870112637e-25
-1.5270281058877e-26
-5.568968303144089e-28
-1.724356811517938e-29
-4.014830932082792e-31
-7.195905557244845e-33
-1.046415980567639e-34
-1.385987022874575e-36
-1.771697323302103e-38
-2.029333383142436e-40
-1.98165771745571e-42
-1.581249697316591e-44
-9.790355996255538e-47
-4.367303461997305e-49
-1.236888773312256e-51
-1.64925757073011e-54
1
1
1
1
1
1
1
1
1
1
1
1
1
1
1
1
1
1
0.9750821840249732
0.655776718044093
0.2167930348904816
0.5340303524478511
1
1
1
1
1
1
1
1
1
1
1
1
1
1
1
1
1
1
0.8735673493649404
0.270137345484032
0.0006333854116995689
-4.132537022020582e-19
-6.077183794145598e-18
0.6999895515153506
1
1
1
1
1
1
1
1
1
1
1
1
1
1
1
1
0.8451975460847981
0.1853074595779545
1.648174507793642e-18
-9.619045729078603e-21
-1.501949300069682e-20
0
0.02347388561042145
1
1
1
1
1
1
1
1
1
1
1
1
1
1
1
0.9258648577593576
0.2383576536203288
8.570265581353197e-19
-1.271534589759477e-19
-1.807678732400547e-20
-3.588604539811981e-20
-8.637793610790915e-20
-2.388328182131598e-34
1
1
1
1
1
1
1
1
1
1
1
1
1
1
1
0.432106543871771
5.205316587938098e-18
-2.506831093066001e-20
-1.362552966634163e-20
-1.757476974024374e-20
-2.192711956018864e-20
-3.843625852137545e-20
-4.03975172484241e-20
1
1
1
1
1
1
1
1
1
1
1
1
1
1
0.7459893280670439
0.06201244082107966
-6.16050346090821e-20
-1.314258128322435e-20
-9.940362900635921e-21
-1.063085136978836e-20
-1.229050157323783e-20
-1.921087039207838e-20
-4.057770829085375e-20
1
1
1
1
1
1
1
1
1
1
1
1
1
1
0.2880177704995427
1.290010845903736e-19
-6.991958939217877e-20
-7.517268277456855e-21
-5.063844564085285e-21
-5.238008084284529e-21
-6.044951753163261e-21
-8.180722957647982e-21
-2.890394599100854e-20
1
1
1
1
1
1
1
1
1
1
1
1
1
0.682035618816544
0.04122870627333938
2.649983472347142e-19
4.839089514077867e-37
-4.003963088886222e-21
-2.386871857955203e-21
-2.217125634873236e-21
-2.486820304260477e-21
-3.229544199627409e-21
-1.398202291004844e-20
1
1
1
1
1
1
1
1
1
1
1
1
1
0.2986382555970039
2.003524172877744e-18
-3.153242150119715e-20
-2.723347142619762e-21
-2.007556597891404e-21
-1.041569370245271e-21
-8.170925151852767e-22
-8.569948798381414e-22
-1.099490782651727e-21
-4.468592119865874e-21
1
1
1
1
1
1
1
1
1
1
1
1
0.8916366022545092
0.1020763128691725
-3.07300658947787e-22
-8.25166529356526e-22
-1.786993093794943e-21
-9.527718454818253e-22
-4.192049803798478e-22
-2.660846266294078e-22
-2.490726069426861e-22
-2.976821167518937e-22
-9.889163385692239e-22
1
1
1
1
1
1
1
1
1
1
1
1
0.6275668711556271
0.02398589301729546
-1.894430935329987e-20
-8.82975908957193e-24
-9.645554773200363e-22
-4.289668893449245e-22
-1.57961984620921e-22
-7.859191037048684e-23
-6.203566898741397e-23
-6.562446978573065e-23
-1.623709826275677e-22
1
1
1
1
1
1
1
1
1
1
0.9985580688419315
0.9411557972420554
0.2819069842789338
5.822834737035214e-05
-4.601551576177257e-22
-1.849347054790571e-22
-4.852908313618969e-22
-1.818703501950028e-22
-5.645437992471853e-23
-2.176733408766204e-23
-1.360309600141296e-23
-1.215600950102553e-23
-2.122060805591112e-23
1
1
1
1
1
0.9986565488796728
0.9861246758929206
0.9498694426420875
0.8754872370076159
0.7422650473758813
0.4986817601971343
0.2318695700759195
0.02283513372469635
1.192443973906528e-19
-1.090183465129883e-22
-2.78118075520745e-22
-2.289353091673699e-22
-7.220354358481424e-23
-1.917058235009262e-23
-5.8103320955855e-24
-2.725119233788086e-24
-1.945006184848976e-24
-2.347612311464221e-24
0.7841886181491335
0.767922079154355
0.7380501111238433
0.6905704194948986
0.6101905958967379
0.4979990295327935
0.3725093233610323
0.2445267106748559
0.1276350232298227
0.03015071195387516
2.025953960648117e-20
-5.111648670420987e-38
-1.529502692148133e-22
0.006567815728542982
4.749495093369391e-05
-3.147648524202028e-22
-1.072552727266974e-22
-2.720113049667189e-23
-6.176384785747629e-24
-1.509727015337279e-24
-5.188985245890534e-25
-2.776627406398842e-25
-2.307346331076884e-25
0.05419463554646038
0.04496791733569704
0.0296898199381074
0.009849042905587687
0
1.32378887427875e-21
0
-1.416272709372263e-27
-1.05468802040673e-23
-9.311137826204349e-22
1.016962034839675e-09
-6.391677010259341e-27
4.930371646702713e-05
0.01620561053041385
0.0003361512090038716
-1.286657926927698e-22
-5.217853181347286e-23
-9.979295457371699e-24
-1.893406061253964e-24
-3.794909184159523e-25
-9.655633594906484e-26
-3.677798961379739e-26
-2.091488325772163e-26
-1.698697514412794e-19
-1.687592587597435e-19
-1.23962738182529e-20
-2.578425304528706e-20
-8.429344178907852e-35
6.138628472213377e-16
8.511396569466467e-13
9.853774584766372e-11
2.832397739243026e-12
2.806393125640729e-10
2.301046615488332e-08
8.656496047972988e-26
0.0006448376891726331
0.01633677798232337
0.0002848118759765673
-3.669317164751632e-23
-2.835829698128547e-23
-3.642304906102028e-24
-5.55867569710757e-25
-9.119656012579425e-26
-1.764922442017883e-26
-4.697110189627131e-27
-1.8064741674994e-27
-2.198859494679881e-19
-2.173573204041024e-19
-1.477908250561807e-20
4.089603051595201e-36
1.227247460884327e-16
3.210080051818268e-13
3.375954457253946e-11
3.93548346963561e-10
4.239695352033684e-09
2.894948836726718e-08
3.571284495919336e-08
1.909282986756681e-22
0.001353506188028371
0.01311961780546567
1.747890767190979e-22
-7.191374366356781e-24
-1.780594400662043e-23
-1.331351529102465e-24
-1.572718182493775e-25
-2.076710224469971e-26
-3.128218588246328e-27
-5.924017775513462e-28
-1.534087743251047e-28
-4.832061543806204e-24
-2.229701587907151e-22
-2.003513214984596e-21
1.011809560452134e-18
2.319188696211565e-14
8.151071505591029e-12
1.508612217928618e-10
5.824288341178882e-10
2.164858385342876e-08
5.523694413605166e-08
4.032854468652397e-07
8.223588354294046e-05
0.001128823247549091
0
-8.216746615162791e-24
-1.046212013547397e-23
-1.319305322152348e-23
-4.825737654959745e-25
-4.294271957275508e-26
-4.461651699920979e-27
-5.279925140254966e-28
-7.379217029192037e-29
-1.31262169525169e-29
-4.123799013158236e-24
-1.126190103318039e-22
4.57258097124642e-22
7.375958744807348e-17
3.123242267308348e-13
2.940092441749053e-11
2.297380686571801e-10
1.844597442802802e-09
2.513037901259605e-08
1.259038510299209e-23
8.83726890849256e-06
0.0001079440200191488
3.763494951151661e-05
1.181270528477856e-27
-5.287678600930025e-23
-1.902870808281033e-23
-1.148183632164805e-23
-1.690677485575145e-25
-1.120102884244654e-26
-9.01058072339511e-28
-8.360767796089446e-29
-8.913032345247333e-30
-1.137199236028026e-30
3.858569170164133e-32
2.027571101046817e-26
4.144238044202625e-21
4.414661200811409e-16
7.066929497450666e-13
3.763397150842164e-11
2.594649970256017e-10
2.727926122617752e-09
9.101143007506407e-09
9.803485816261351e-24
9.863816512295387e-06
9.792707791477533e-05
7.364221580664766e-05
0
-2.209819493372951e-23
-2.448291770084815e-23
-1.036560932583791e-23
-5.524611354455402e-26
-2.720535240293946e-27
-1.694955560205597e-28
-1.228280733067617e-29
-1.019465713752096e-30
-9.785831640943728e-32
1.096224331984304e-31
4.264132829365137e-26
8.304333090291749e-21
6.485496166491621e-16
7.490362744103236e-13
3.349889988294058e-11
2.145839620638299e-10
7.014265955129134e-10
7.347291694597638e-10
3.432132465955191e-23
4.749114988113168e-06
0.0001354413738705175
0.0001682517366534219
0.0001198818150195111
-8.927675683165699e-24
-2.260618068113111e-23
-8.171022495818818e-24
-1.62255684005564e-26
-5.92912116964658e-28
-2.913308045999913e-29
-1.655224789940611e-30
-1.081910371247462e-31
-8.100549200371699e-33
4.693309886880104e-45
1.494297112112951e-26
3.086077105445429e-21
3.166612869095965e-16
3.882688002585726e-13
1.291961031419332e-11
3.614836010897879e-11
1.454627244971357e-11
2.028007863699913e-15
3.952106237638558e-15
-3.202881166308986e-26
4.338803793887474e-06
4.502132282098923e-05
4.851282996157872e-05
-2.302228175560389e-22
-1.510304817542357e-23
-4.97280767600293e-24
-4.138080660658701e-27
-1.113198167907983e-28
-4.446796579252118e-30
-2.014257319505644e-31
-1.048005514379657e-32
-6.25709804718946e-34
-3.544981434516957e-31
-1.679869479715255e-29
-3.480255726930623e-28
-4.101118572702958e-27
-2.982926560913131e-26
-1.337792294729395e-25
-3.215548069708748e-25
-4.34839986104513e-32
2.489825573742036e-14
2.596980395003776e-14
-1.638865776475228e-23
-1.241670708995389e-23
7.433477920663947e-25
3.966768565237692e-07
1.017934892615485e-06
-6.5809432948895e-24
-2.158631412985794e-24
-8.869415883489199e-28
-1.732005908206377e-29
-5.831606408123963e-31
-2.166355738820551e-32
-9.123133592209978e-34
-4.407008414294274e-35
-2.130916137684037e-31
-1.068588672053877e-29
-2.40277509592329e-28
-3.189864974780041e-27
-2.777764952223815e-26
-1.671621751343276e-25
-7.171066766751163e-25
-2.24595315666962e-24
-5.261558008150318e-24
-9.468367756343451e-24
-1.340613651171572e-23
-1.505292964323425e-23
-1.28629222779276e-23
-6.897411077055043e-24
2.56261575762975e-09
-2.468222280029606e-24
-6.301181190882571e-25
-1.548646172356646e-28
-2.158224659098405e-30
-6.363904552616368e-32
-2.007841130846422e-33
-7.014130712909986e-35
-2.781526293202848e-36
-7.129022924195413e-33
-3.921188760688057e-31
-9.761570456417748e-30
-1.453592848488009e-28
-1.444344440056056e-27
-1.013590806784449e-26
-5.203804869022211e-26
-2.006089615064162e-25
-5.93995836172307e-25
-1.379760125112794e-24
-2.559727501315201e-24
-3.829755564827732e-24
-4.59045286336376e-24
-4.239178952325011e-24
-2.680295232323694e-24
-1.066932143649224e-24
-1.184874530239315e-25
-2.141452214961418e-29
-2.095253630458846e-31
-5.62500154290466e-33
-1.563941878732579e-34
-4.670678125434123e-36
-1.549656548998762e-37
-5.530317969473005e-35
-3.397287942564778e-33
-9.545636419422516e-32
-1.62745837942732e-30
-1.88508221743083e-29
-1.575814252718138e-28
-9.876485161249724e-28
-4.769736795730832e-27
-1.813631046077621e-26
-5.526672832339218e-26
-1.368240744258655e-25
-2.772523021706477e-25
-4.584857670667638e-25
-6.057699484229548e-25
-6.032020959349842e-25
-3.331349619299746e-25
-1.398859238140968e-26
-2.2816497373084e-30
-1.552356470787986e-32
-3.943943760362771e-34
-1.001703466575316e-35
-2.64085402010112e-37
-7.507672092120473e-39
-7.789458073178778e-38
-6.235506683619675e-36
-2.293353692506752e-34
-5.147299251342228e-33
-7.894975506245732e-32
-8.787511699885386e-31
-7.366468292044151e-30
-4.771882281820709e-29
-2.43559354194694e-28
-9.948761261614971e-28
-3.292334079691827e-27
-8.89684980688283e-27
-1.964526130310906e-26
-3.502013331976273e-26
-4.860445490024393e-26
-4.797625435447676e-26
-1.023015328776801e-27
-1.817023151721705e-31
-8.644576047506262e-34
-2.159707193117698e-35
-5.184714243097047e-37
-1.245078325701467e-38
-3.115502802145721e-40
-2.615359229574616e-40
-2.34088206842811e-38
-9.669053849523756e-37
-2.452817576336983e-35
-4.286146168773707e-34
-5.486472009653465e-33
-5.345497917693819e-32
-4.070572498363169e-31
-2.471097214144145e-30
-1.21459136536088e-29
-4.892442857115487e-29
-1.628305973567594e-28
-4.488499823833977e-28
-1.017232529682741e-27
-1.847389162264623e-27
-2.512072624006078e-27
-4.557552632637051e-29
-1.045739906106483e-32
-3.577532852808659e-35
-9.131004262803601e-37
-2.140072633521706e-38
-4.821158264634683e-40
-1.091464897229301e-41
-2.19710216369839e-43
-2.209455231218299e-41
-1.02894549787041e-39
-2.957307488959083e-38
-5.889412470435816e-37
-8.649500962526764e-36
-9.740785816249253e-35
-8.641706921695871e-34
-6.162293089825856e-33
-3.587998077879765e-32
-1.726853329894021e-31
-6.927944790201652e-31
-2.323351807311434e-30
-6.471389660811025e-30
-1.45707111143554e-29
-2.408843417566892e-29
-1.193577032289716e-30
-4.20394703517419e-34
-1.090744439703709e-36
-2.955381553635026e-38
-6.975921641298697e-40
-1.515039939223047e-41
-3.186474076294399e-43
-1.433083132254265e-50
-1.312441612875432e-48
-5.804522486013779e-47
-1.698382214305704e-45
-3.805543821145493e-44
-7.112989296750557e-43
-1.159394715413981e-41
-1.67156925841505e-40
-2.129341800197753e-39
-2.387009345439924e-38
-2.351655649159255e-37
-2.04049943964762e-36
-1.56696698669651e-35
-1.071919380396243e-34
-6.564807246234145e-34
-3.586224037197353e-33
-1.719406501078539e-32
-1.143989042156317e-35
-2.432380750997979e-38
-7.275857127156891e-40
-1.782813388266509e-41
-3.828583607808643e-43
-7.666867949454559e-45
-3.735004277330949e-54
-5.207702851151112e-52
-3.438166883357704e-50
-1.446246129559462e-48
-4.399202308705227e-47
-1.04233280875372e-45
-2.023372521938238e-44
-3.334316640958389e-43
-4.775479222647248e-42
-6.025994347601376e-41
-6.744099142576531e-40
-6.715151762614775e-39
-5.966077796342572e-38
-4.750162778934226e-37
-3.395478407725015e-36
-2.153265131242877e-35
-1.179978316596784e-34
-2.044545249477047e-37
-3.94089799916008e-40
-1.355395885625932e-41
-3.552416214579187e-43
-7.724882704958095e-45
-1.50620843522921e-46
-1.639098229769518e-57
-2.558887507059639e-55
-1.881122004755368e-53
-8.752807939307005e-52
-2.921820986906336e-50
-7.53382251175271e-49
-1.580717145869082e-47
-2.808652513322195e-46
-4.354377066799858e-45
-6.004926877096235e-44
-7.431536593216173e-43
-8.268854830093649e-42
-8.282759143523882e-41
-7.500502538545772e-40
-6.112335739331021e-39
-4.309951465960489e-38
-2.457330608827961e-37
-2.322335944751834e-39
-4.60662601359747e-42
-1.901708772465393e-43
-5.493151952794038e-45
-1.237089074742849e-46
-2.396699494176409e-48
-3.589830857439754e-62
-6.25821146416982e-60
-5.077356662469818e-58
-2.570882127598253e-56
-9.168447062910915e-55
-2.465381662063054e-53
-5.237973050904491e-52
-9.133150321440647e-51
-1.352070030157679e-49
-1.747190061030011e-48
-1.996967691608687e-47
-2.001805884248057e-46
-1.71307353093123e-45
-1.212682754818801e-44
-7.044102672690915e-44
-3.659750198114516e-43
-2.169939302865982e-42
-1.61375958042168e-41
-3.856471721255415e-44
-2.000577286704736e-45
-6.562355190364136e-47
-1.563713318072346e-48
-3.065934010358313e-50
-7.510303388158635e-70
-2.796327521808137e-67
-4.851770992481384e-65
-5.263537909025266e-63
-4.028619667035579e-61
-2.326300649163411e-59
-1.058504502682776e-57
-3.914697850684916e-56
-1.204587518150661e-54
-3.140512053124756e-53
-7.037895707461867e-52
-1.372250943227245e-50
-2.35527659777667e-49
-3.602719653557492e-48
-4.962171249581958e-47
-6.153266201841879e-46
-6.76503125644152e-45
-6.500801242610563e-44
-2.292389219011626e-46
-1.570139782906811e-47
-6.026909339226614e-49
-1.550900154153046e-50
-3.129011407545323e-52
-1.794540024209537e-73
-7.616309102182152e-71
-1.504222244099162e-68
-1.856061272285589e-66
-1.615447614182673e-64
-1.061348313293995e-62
-5.501052910147832e-61
-2.320769299855844e-59
-8.155197346255722e-58
-2.428600638325962e-56
-6.211650711977589e-55
-1.380764430485989e-53
-2.702292513633308e-52
-4.726196217663733e-51
-7.464368311964624e-50
-1.057159056965741e-48
-1.307738981515973e-47
-1.38899489586512e-46
-9.576901658368026e-49
-9.1382444183257e-50
-4.22891449272607e-51
-1.198252836742303e-52
-2.525397214606079e-54
-2.348226866052782e-77
-1.132970235991724e-74
-2.535492667083034e-72
-3.538182207473619e-70
-3.480782026369585e-68
-2.586705319658072e-66
-1.518696088050531e-64
-7.266777689936461e-63
-2.896224458576077e-61
-9.763614198284717e-60
-2.817327696273245e-58
-7.044971839319707e-57
-1.552557667432797e-55
-3.076715502442122e-54
-5.53144266510496e-53
-8.819646604588701e-52
-1.189045050806296e-50
-1.32380404703015e-49
-2.777765214761568e-51
-3.911991624882025e-52
-2.247963563155453e-53
-7.142858588016778e-55
-1.594036498396604e-56
-1.324205820168737e-81
-7.201693327880721e-79
-1.807381758157453e-76
-2.823305393077543e-74
-3.11303666995046e-72
-2.601343695620566e-70
-1.723008308717437e-68
-9.308212634812409e-67
-4.173076488339787e-65
-1.569129420621066e-63
-4.9962631570297e-62
-1.369230600877358e-60
-3.326841490115004e-59
-7.414197783662742e-58
-1.511620393265672e-56
-2.623302619946889e-55
-3.459361724375755e-54
-3.176859457498613e-53
-5.514223746741676e-54
-1.217996975836701e-54
-8.941096298545716e-56
-3.240277353495606e-57
-7.749932169140391e-59
-1.435397241778855e-86
-8.620995426915396e-84
-2.393649870709967e-81
-4.160934490133243e-79
-5.140542938888664e-77
-4.826001710522685e-75
-3.566988738698404e-73
-2.109611907455537e-71
-1.003991551096529e-69
-3.853107995188589e-68
-1.203106220090747e-66
-3.184523296331648e-65
-8.018294194264576e-64
-2.179865977009192e-62
-5.866995671155973e-61
-1.23194300719087e-59
-1.651992273398896e-58
-1.207745344037769e-57
-7.356276331149278e-57
-2.710874708604863e-57
-2.610631790120477e-58
-1.095668448345361e-59
-2.838403710167585e-61
-1.491989477251322e-93
-1.233082626670524e-90
-4.734984837549813e-88
-1.139305351874942e-85
-1.944471426552271e-83
-2.521620191638038e-81
-2.595699179835705e-79
-2.185741363018146e-77
-1.539134713344317e-75
-9.224676814986603e-74
-4.782359532236253e-72
-2.181685938312286e-70
-8.928696093722772e-69
-3.340815513151045e-67
-1.15451284624763e-65
-3.662448420839453e-64
-1.050636109720965e-62
-2.713632572135932e-61
-6.429088624439467e-60
-4.192129846106742e-60
-5.424403631469732e-61
-2.671868329202509e-62
-7.564918596083548e-64
-1.708928822243885e-97
-1.556023509289157e-94
-6.582530592944503e-92
-1.745126948061021e-89
-3.280397419736615e-87
-4.679855358609128e-85
-5.288864518497233e-83
-4.8760196686362e-81
-3.747998327464476e-79
-2.445398837786463e-77
-1.37775268894285e-75
-6.830609826374211e-74
-3.044056945273512e-72
-1.243595404254214e-70
-4.693235398979582e-69
-1.618587699392705e-67
-5.012307730018608e-66
-1.389872839103491e-64
-3.529160812779658e-63
-4.279149195958205e-63
-7.593257903477278e-64
-4.439133179814958e-65
-1.383840258788719e-66
-1.230559357730557e-101
-1.230743875967204e-98
-5.716927749912179e-96
-1.663571801818537e-93
-3.428352096610816e-91
-5.350292187366706e-89
-6.594733323699017e-87
-6.609187405012133e-85
-5.504583571577237e-83
-3.881556525273999e-81
-2.360805476041996e-79
-1.264659045480637e-77
-6.107392789852537e-76
-2.71211802127833e-74
-1.112276311975799e-72
-4.147716407359963e-71
-1.379891140860511e-69
-4.095499362014779e-68
-1.113521602820615e-66
-2.593518070732817e-66
-6.418533389081696e-67
-4.494173824659982e-68
-1.551239243856544e-69
-2.993301688833428e-106
-3.336928645889898e-103
-1.728064291252604e-100
-5.598108273512808e-98
-1.28093365465676e-95
-2.212060161201512e-93
-3.006063958511764e-91
-3.30956432372319e-89
-3.018794779682174e-87
-2.326730570432856e-85
-1.546602436623568e-83
-9.075076408388548e-82
-4.820897713359943e-80
-2.363675509971887e-78
-1.069708245187408e-76
-4.379455340800696e-75
-1.591607000696112e-73
-5.156496814510193e-72
-1.536744546661352e-70
-6.985388151306919e-70
-2.452982985265108e-70
-2.074964132888097e-71
-7.951441242600073e-73
0.5655499261642994
-7.938021119065585e-23
-1.536452820623932e-22
-2.553600995343033e-22
0.4773956481717887
0.04952569212101568
3.392743439046903e-21
-1.354915000818377e-20
0.0453274167394218
0.02062633121103147
0.001671595608568029
-4.733481589933602e-22
-3.901871704256367e-19
-2.566891673720525e-19
0.0003184699502801524
4.462634702017727e-05
-3.690281099379394e-20
-5.025166675560186e-20
-1.615588296844927e-22
1.492326518076847e-06
-4.965773272556579e-20
-3.854179318555937e-20
-1.993674065691238e-20
1.144620151243922e-24
-3.140014403292091e-20
-2.463783987887577e-20
-1.566972267163324e-20
-7.870176881125455e-21
-1.353062979974841e-20
-9.976820034620996e-21
-5.884886431847612e-21
-2.898448162505761e-21
-3.955903454078308e-21
-2.600303978316982e-21
-1.346762381738957e-21
-5.680280597377527e-22
-8.038560791615103e-22
-4.718963903942997e-22
-2.176931835019061e-22
-8.226399865825042e-23
-1.215230661590968e-22
-6.473475731856618e-23
-2.721648532380868e-23
-9.438372927948415e-24
-1.470182392396053e-23
-7.162742733435039e-24
-2.781625760497252e-24
-8.934988170597472e-25
-1.499366813748715e-24
-6.763368110254615e-25
-2.412651807343114e-25
-7.167630506179069e-26
-1.341239264316986e-25
-5.601598690704849e-26
-1.845697006775655e-26
-5.027974862506339e-27
-1.0827489641938e-26
-4.158964252458337e-27
-1.261341390408504e-27
-3.140751209787587e-28
-8.065257665885893e-28
-2.816247299261152e-28
-7.814764044138057e-29
-1.772645630123414e-29
-5.668704355492669e-29
-1.771303389867077e-29
-4.464290439098175e-30
-9.202199836092258e-31
-3.849235491008072e-30
-1.056798910184224e-30
-2.398780551163776e-31
-4.485327762185287e-32
-2.571372144963731e-31
-6.101903367750699e-32
-1.236510570194881e-32
-2.093308884539713e-33
-1.69357285199099e-32
-3.443940759081259e-33
-6.187228380905912e-34
-9.4612621842581e-35
-1.081489808025635e-33
-1.886449327516412e-34
-2.995172860258165e-35
-4.129242052309336e-36
-6.518734668954117e-35
-9.814987135394828e-36
-1.378065302371329e-36
-1.712181332370843e-37
-3.615119899358156e-36
-4.727941130774888e-37
-5.884912082669357e-38
-6.597343561476013e-39
-1.810087824027182e-37
-2.063985125026338e-38
-2.283043552329343e-39
-2.313742724111796e-40
-8.07993839425573e-39
-8.046322453806359e-40
-7.920426395144578e-41
-7.268270872629138e-42
-3.186094858029231e-40
-2.774711478332869e-41
-2.431665526628636e-42
-2.022263608359481e-43
-1.100469973742932e-41
-8.406076706787634e-43
-6.560514864547259e-44
-4.9449485573884e-45
-3.298595027230079e-43
-2.222992702375811e-44
-1.546932267850724e-45
-1.056551960185757e-46
-8.491462070013873e-45
-5.094241088721958e-46
-3.170647369477561e-47
-1.962614589149049e-48
-1.856654637802655e-46
-1.00294079861663e-47
-5.613554674133711e-49
-3.153002630630716e-50
-3.410070144506978e-48
-1.679928838128994e-49
-8.520346889479938e-51
-4.354430464814011e-52
-5.204998454270655e-50
-2.368992547896541e-51
-1.098850335535212e-52
-5.132110912454992e-54
-6.53397109801119e-52
-2.781678875837567e-53
-1.191943701283204e-54
-5.11693786427933e-56
-6.675016580778028e-54
-2.688245347832715e-55
-1.074989955428044e-56
-4.270800608473326e-58
-5.486168177831164e-56
-2.111097332736059e-57
-7.955201018535791e-59
-2.946384487501191e-60
-3.578838145628035e-58
-1.32725915873354e-59
-4.755297440911338e-61
-1.65411179600299e-62
-1.820961335069321e-60
-6.556563365724e-62
-2.251192919875465e-63
-7.406924652689336e-65
-7.053683514163512e-63
-2.480916676740421e-64
-8.219117061779451e-66
-2.574756183471298e-67
-2.005665964336758e-65
-6.925450479412677e-67
-2.226501026194448e-68
-6.679635528885479e-70
-3.941698980373862e-68
-1.341537006957042e-69
-4.205111331762062e-71
-1.21427060805551e-72
-4.773155581308482e-71
-1.6064210923062e-72
-4.928816604016192e-74
-1.375979694914383e-75
-2.659405172177985e-74
-8.875297465395026e-76
-2.675464895235442e-77
-7.261482792065917e-79
-2.546898348044118e-22
-2.130873075423499e-22
-3.108087853362511e-23
-2.528383881204806e-24
-1.434064862211001e-25
-6.899984387793616e-27
-2.617252160179099e-28
-7.505636919852206e-30
-1.630080514850934e-31
-2.782570758990161e-33
-4.267540863238791e-35
-5.842137286867215e-37
-6.816553105242238e-39
-6.59405693366042e-41
-5.149403268655497e-43
-3.118720071689026e-45
-1.370132371320994e-47
-3.859761219911866e-50
-5.169665851088284e-53
-5.409038918946223e-21
-1.390194415935673e-21
-2.119126040767323e-22
-2.20850609347914e-23
-1.70275033141169e-24
-1.002040473289433e-25
-4.644457710988452e-27
-1.720033497957267e-28
-5.12316885714848e-30
-1.229774036508086e-31
-2.362386586162524e-33
-3.601187196034544e-35
-4.330424253748356e-37
-4.061365730390474e-39
-2.911963841566788e-41
-1.543426784357296e-43
-5.705079580147545e-46
-1.313444737214854e-48
-1.411823744505474e-51
-1.053768325278601e-20
-5.239073756764115e-21
-1.029163979002339e-21
-1.165658982159758e-22
-9.047178184070379e-24
-5.142076774270935e-25
-2.210280197204955e-26
-7.319078909458702e-28
-1.892743253127329e-29
-3.849175513370273e-31
-6.183819158916666e-33
-7.887447235744228e-35
-7.981335965274244e-37
-6.360598746478425e-39
-3.930272872514781e-41
-1.830087900950194e-43
-6.093380874986894e-46
-1.303460115961309e-48
-1.349721948065059e-51
1.588473618335377e-22
-3.419472238925151e-21
-1.0740271624405e-21
-1.362155849153841e-22
-1.043428001956752e-23
-5.567041486342646e-25
-2.175419134723607e-26
-6.418528646489414e-28
-1.46334773055781e-29
-2.627635406317641e-31
-3.756809218598238e-33
-4.298077602225339e-35
-3.934914252550873e-37
-2.867351033637317e-39
-1.641996862098151e-41
-7.204238530903618e-44
-2.303072329304952e-46
-4.819388230053172e-49
-4.956362117275762e-52
2.480350095620793e-08
1.265485099073238e-26
-5.899820734343137e-22
-6.131767958700655e-23
-4.281794233145113e-24
-2.116765487287209e-25
-7.711042745389251e-27
-2.146478381724744e-28
-4.662851123008102e-30
-7.964453835622051e-32
-1.077373597523191e-33
-1.162352745116129e-35
-1.00443854468645e-37
-6.948885059818267e-40
-3.816714647410897e-42
-1.626896724523657e-44
-5.114887300548303e-47
-1.061066271276869e-49
-1.083421091048093e-52
3.962120380691061e-11
-1.386413670547127e-21
-1.791938384606319e-22
-1.588940344133908e-23
-1.0098672559415e-24
-4.72511463671847e-26
-1.658052154357795e-27
-4.431372117475286e-29
-9.15356586292613e-31
-1.481063846119701e-32
-1.89978867206039e-34
-1.951728515575119e-36
-1.617854652992271e-38
-1.084731340421958e-40
-5.840982433555963e-43
-2.464288013670672e-45
-7.700875971366902e-48
-1.584128035200955e-50
-1.591732286847683e-53
-2.327923514501101e-21
-3.606824856430961e-22
-3.880721761638573e-23
-3.035760950620979e-24
-1.754210519351331e-25
-7.584270904590049e-27
-2.482252722015043e-28
-6.227059788271399e-30
-1.213444807106935e-31
-1.86229142846794e-33
-2.281751819149882e-35
-2.259936943568016e-37
-1.82657644878418e-39
-1.20795888835748e-41
-6.470186139249907e-44
-2.721209066533497e-46
-8.435978850815357e-49
-1.705117340832491e-51
-1.664781937380553e-54
-5.221632753684114e-22
-6.656816614336305e-23
-6.232057818154536e-24
-4.343475887733293e-25
-2.273436026621731e-26
-9.007388597658251e-28
-2.727367723362259e-29
-6.386217021257447e-31
-1.172299841353699e-32
-1.712407073775476e-34