/*--------------------------------*- C++ -*----------------------------------*\
| =========                 |                                                 |
| \\      /  F ield         | OpenFOAM: The Open Source CFD Toolbox           |
|  \\    /   O peration     | Version:  2206                                  |
|   \\  /    A nd           | Website:  www.openfoam.com                      |
|    \\/     M anipulation  |                                                 |
\*---------------------------------------------------------------------------*/
FoamFile
{
    version     2.0;
    format      ascii;
    arch        "LSB;label=32;scalar=64";
    class       volScalarField;
    location    "0.15";
    object      p;
}
// * * * * * * * * * * * * * * * * * * * * * * * * * * * * * * * * * * * * * //

dimensions      [1 -1 -2 0 0 0 0];

internalField   nonuniform List<scalar> 
2268
(
100728.5837392334
100728.0228720888
100722.2913197244
100712.1039282794
100697.5241661993
100678.2305725123
100653.8718819213
100624.1304524763
100588.7569994364
100547.6699916093
100501.126782456
100450.0165804574
100396.2758853938
100343.5047262442
100298.0723293062
100271.1464277972
100281.6721119436
100358.7884275755
100539.2801968734
100857.4282558644
101320.4322977567
101853.4979432542
102496.2262557033
100667.71112427
100667.1180303972
100661.2922563013
100651.0198112356
100636.321006708
100616.8627151795
100592.287070936
100562.2596298579
100526.5055911279
100484.9080542832
100437.6729212972
100385.6118311732
100330.5529717031
100275.9528079669
100227.9985714819
100197.6302264377
100203.483479368
100274.3373995053
100447.4808968959
100759.4451340843
101224.8044361161
101768.0061535734
102456.3154027954
100605.6778511108
100605.0617143629
100599.133921074
100588.7687587789
100573.9270918304
100554.2565858321
100529.3851252755
100498.947284559
100462.6208725505
100420.2208251239
100371.852133578
100318.1760757693
100260.8014157878
100202.8602504147
100150.0734084528
100112.7653867994
100108.8403226651
100166.4539834649
100322.8892565285
100618.0151886194
101077.1383640164
101622.7856563367
102362.62075965
100542.4112374195
100541.7400412584
100535.6655268294
100525.1507405438
100510.089328674
100490.1024613518
100464.7925748612
100433.7469279881
100396.5725219241
100352.9815974818
100302.9271861053
100246.845449971
100186.011348524
100123.0476674893
100062.9268893087
100014.9775527718
99995.9075960569
100032.7384733329
100162.3502783792
100427.7575609837
100869.489502507
101408.6427656598
102203.9867361424
100478.0579632988
100477.3070474042
100471.0573577563
100460.3496382408
100445.0089756969
100424.6249111423
100398.7637275189
100366.9507152432
100328.7014460895
100283.5944041451
100231.384400047
100172.2141952244
100106.916642265
100037.417486583
99967.63664488608
99905.46535153223
99865.80391523884
99873.74073381006
99964.83034451825
100183.349174745
100591.6821833932
101109.9350122563
101953.2554697918
100412.6629814903
100411.8471184755
100405.4342000722
100394.5279370042
100378.8888157982
100358.0704300522
100331.5935419821
100298.9090876451
100259.4237874804
100212.5551886012
100157.8190969946
100095.0061025257
100024.4115581522
99947.08235072262
99865.56650142794
99785.81345682655
99720.09358316846
99690.15162204063
99729.07636308794
99875.91708268825
100225.458691481
100696.1089290612
101555.9338561694
100345.5657142627
100344.7036361011
100338.1378917396
100327.0173126954
100311.0476137271
100289.7403381531
100262.5607457745
100228.8735754871
100187.9608003496
100139.0549984221
100081.3969902075
100014.3768897724
99937.68150075461
99851.35471174085
99756.36204345613
99656.31818555198
99559.95339878638
99483.49991077957
99457.75832889466
99496.20528401749
99735.10752195882
100112.7313543748
100932.0820011472
100275.5367519282
100274.4762494184
100267.613078814
100256.0694228186
100239.5164089871
100217.4130967614
100189.1512520376
100153.9901206543
100111.0624913048
100059.3849753162
99997.87929505046
99925.47501676076
99841.17564314773
99743.98367759853
99633.32737273042
99510.35472053244
99379.01071594909
99245.64077246499
99120.79233171797
99012.30047960313
99012.26377067587
99273.40748413604
100000.3736153859
98148.94302818182
98149.00457928154
98149.12131276607
98149.26710802292
98149.41656873329
98149.55691450709
98149.68238822995
98149.78911262707
98149.88257050632
98149.96109507643
98150.02666757375
98150.08104240251
98150.12574012812
98150.16198128139
98150.19078137339
98150.21294068475
98150.229067544
98150.23959909126
98150.24481581757
98148.872003275
98148.93656888886
98149.05821797816
98149.20803275361
98149.35990769492
98149.50147021053
98149.62698524674
98149.73465598118
98149.82761618575
98149.90582582694
98149.97110990081
98150.02524329731
98150.06970490936
98150.10575576028
98150.13440531454
98150.15644964846
98150.17249369476
98150.18297253418
98150.18816756073
98148.78493409521
98148.85733500621
98148.98975707895
98149.1478062776
98149.30460660729
98149.44860224493
98149.57465134302
98149.68294095845
98149.77538757291
98149.85298814741
98149.91767546817
98149.97127478068
98150.01528121
98150.05095464033
98150.07930339848
98150.10111752301
98150.11699551724
98150.12736713832
98150.13250958164
98148.67823465486
98148.76526138313
98148.91566478077
98149.08664938828
98149.25100943455
98149.39859795467
98149.52542676905
98149.63415373933
98149.72590827945
98149.80258624849
98149.86636166653
98149.91915022072
98149.96246503264
98149.99756901675
98150.02546501934
98150.04693314449
98150.06256178842
98150.07277232668
98150.07783613923
98148.54475041271
98148.65779622296
98148.83567722888
98149.02501143176
98149.19964385628
98149.35181389001
98149.47946322663
98149.58845974084
98149.67920971928
98149.75461187708
98149.81714769134
98149.86884566704
98149.91123277118
98149.94557680047
98149.97287022856
98149.99387861941
98150.00917627368
98150.0191730583
98150.02413280029
98148.37187426964
98148.531705452
98148.75016803549
98148.96385562191
98149.15134765411
98149.30819830396
98149.43753258025
98149.54603683445
98149.63532679441
98149.70904894624
98149.7700145448
98149.82032656584
98149.86155047154
98149.89494693423
98149.92149133152
98149.94192933063
98149.95681680317
98149.96654885881
98149.97137974239
98148.13969903406
98148.38345471819
98148.65960243378
98148.90392159439
98149.10706650317
98149.26834491236
98149.39979179131
98149.50700946288
98149.59427878638
98149.66586564903
98149.7249240096
98149.77354644376
98149.8133745346
98149.84564002568
98149.87129336983
98149.89105425988
98149.90545544622
98149.91487390827
98149.91955212002
98147.82525129647
98148.22749866247
98148.55897050777
98148.84312492107
98149.06689839094
98149.23230796002
98149.36603111819
98149.47140058238
98149.55605871555
98149.62500706667
98149.68175367934
98149.72844116525
98149.76664994203
98149.79760761015
98149.82223398452
98149.84121624287
98149.8550590529
98149.86411785077
98149.86862096973
100164.2883935416
100162.7389528149
100155.4191996629
100143.1254357034
100125.5484848464
100102.0669325743
100071.9404900598
100034.2472855367
99987.86381248872
99931.43971710349
99863.35413581054
99781.75324251925
99684.4860805706
99568.85447813121
99431.78366415249
99269.78689226619
99076.2993596497
98835.3117687285
98518.76003149975
98203.72876032308
98181.63830876481
98243.41742181582
98280.46498937636
100013.0835778316
100011.1958968893
100003.4863780539
99990.57490625785
99972.05407844958
99947.20412260902
99915.11871915475
99874.62279015336
99824.23655746704
99762.08806522998
99685.77271324338
99592.35510604599
99478.19585446533
99338.36918325965
99165.82438633044
98948.72157568177
98670.5407487528
98347.09639410349
98166.30140257806
98156.70108409392
98156.37484873689
98158.21447228674
98163.40798471044
99858.64842603405
99856.30719925907
99848.06418071889
99834.41624058405
99814.8453089137
99788.52768065367
99754.39261177975
99711.00924854242
99656.54872923027
99588.62183396019
99504.03508784896
99398.9094819313
99268.51863114521
99105.93702906405
98898.4265315199
98627.1165083768
98318.53290900396
98163.66835470326
98151.61919136409
98152.56371310205
98153.08946801221
98152.73010629416
98150.30700458567
99702.04368940272
99699.28224969321
99690.58210068085
99676.31977646632
99655.88762412147
99628.37201457474
99592.56044642515
99546.79497876525
99488.95176021513
99416.17127128848
99324.51892762183
99209.53944809482
99065.84914333388
98882.9126688106
98639.15586483196
98336.74060103226
98162.09387703129
98150.70278184033
98150.08997541753
98150.74471893755
98151.39861572807
98151.41817907873
98151.00768287512
99544.20964720751
99541.07422068494
99532.02721290657
99517.324739416
99496.29852437352
99467.97243830153
99431.03114201983
99383.63977848893
99323.46756451676
99247.24133977851
99150.39664960184
99028.54968718049
98875.1750000648
98671.28883134255
98395.80122980369
98168.05863243296
98150.38647237227
98149.56342137205
98149.71898682427
98150.03715233826
98150.42964957752
98150.6156379748
98150.3541048974
99386.07167348346
99382.63016467367
99373.38178870484
99358.47093405675
99337.20250860183
99308.57596758805
99271.22695454664
99223.21488491811
99162.11770619631
99084.29674508216
98984.82055895907
98860.15996107238
98699.99223456066
98476.05539692713
98221.17444773678
98151.82043011165
98149.90143050844
98149.57055346981
98149.57525893419
98149.71746132949
98149.97872012739
98150.12488877654
98149.99241092122
99228.49118724302
99224.82879244917
99215.54601633137
99200.69341526361
99179.58568032958
99151.2436085122
99114.31865069197
99066.85573779343
99006.47107218255
98929.20555487892
98830.24797837909
98706.98684201342
98539.58479124548
98304.65508504002
98152.09056104356
98149.14703276062
98149.28924162489
98149.35546364266
98149.43194754324
98149.57529119331
98149.77658223583
98149.89262523787
98149.9524886282
99072.22919106466
99068.4409984197
99059.29684974247
99044.77843274944
99024.24706395176
98996.7943648478
98961.16194830122
98915.49171215613
98857.57352995164
98783.24865583236
98688.51352593757
98570.2790564426
98396.56681513472
98188.89250783432
98150.10038054021
98148.92056909784
98149.06032424129
98149.1939926566
98149.32030994818
98149.468980508
98149.64217045986
98149.75112342763
98149.92690451846
98917.94561418015
98914.12744926017
98905.28419607758
98891.35717057242
98871.78652638535
98845.78579953212
98812.2604743288
98769.57577157883
98715.83120941246
98646.96192872191
98560.3425769921
98450.10383913107
98280.23604148459
98150.28850713292
98148.85034901784
98148.78714844446
98148.93263504973
98149.07927591114
98149.21609290433
98149.3582110737
98149.5127242493
98149.62697411406
98149.81551282232
98766.17656109051
98762.41397905748
98754.00312408424
98740.87048424629
98722.55784456056
98698.43103371102
98667.62879452208
98628.85499106433
98580.64133317208
98519.43697254189
98444.06718305197
98345.42706933321
98199.41262343519
98149.21439721981
98148.72775956255
98148.81508346317
98148.88151423766
98148.99408383413
98149.11306118933
98149.23987128309
98149.37496844139
98149.48823246727
98149.6409958294
98617.07587270194
98613.43293815127
98605.53222200787
98593.30557541999
98576.39321365159
98554.32906477695
98526.5307990341
98492.16419302045
98450.34939549623
98398.44388398751
98336.15779522194
98254.98812815279
98158.23022932962
98149.05302045084
98148.57076357637
98148.75898978079
98148.80304085545
98148.9015168445
98149.00368149325
98149.11396368276
98149.22949851648
98149.33214483185
98149.44735574223
98470.30849179726
98466.83858285951
98459.49344720462
98448.24223699943
98432.80722665833
98412.88145691156
98388.20611346092
98358.65505195482
98324.2808715245
98283.81576022717
98238.29714659498
98187.3172701758
98149.304535155
98148.6493406677
98148.55291063852
98148.62810858522
98148.70382070066
98148.79418568735
98148.88439167649
98148.98104532335
98149.07996221221
98149.16954875801
98149.25757368376
98326.6655170615
98323.42520940756
98316.75565190322
98306.73001788241
98293.14485963881
98275.87315040952
98255.6048148142
98233.86949373047
98212.39809491139
98192.04960119922
98178.30228792518
98162.04413200007
98149.00161068563
98148.57292770248
98148.64340551138
98148.58047361391
98148.61430263531
98148.67905259511
98148.75792263748
98148.84395998267
98148.93042703305
98149.00884171795
98149.0791215387
98204.82185705702
98202.74426270556
98198.76844562628
98193.23591320527
98187.27636586233
98180.43739293696
98172.25799055924
98163.90722611052
98156.33714997279
98149.70436534946
98148.07557597048
98147.9786772216
98147.88911630062
98148.37406239565
98148.42976486364
98148.43569472304
98148.48589094446
98148.54816000182
98148.62484012464
98148.70521638107
98148.78365839746
98148.8538352864
98148.9128935848
98152.13085445562
98151.55583978249
98150.59320196058
98149.39115818214
98148.93697477714
98149.09324598244
98148.87896985446
98148.53303167714
98148.3618242785
98148.13978191697
98148.03443656744
98147.92859752757
98147.81841011936
98148.05944682186
98148.10948428715
98148.21780208801
98148.31659862262
98148.40039744329
98148.4862643027
98148.56706498419
98148.64158232998
98148.70620019984
98148.75814108584
98148.68676098752
98148.68776301379
98148.69111989693
98148.70895298726
98148.73617635632
98148.74278093799
98148.61560665653
98148.4136383166
98148.23366470259
98148.04619601149
98147.88692280449
98147.79341589109
98147.7070097559
98147.84465067128
98147.79524478216
98147.98448998097
98148.13647822649
98148.24932334883
98148.34896423573
98148.43336634657
98148.5062120487
98148.56684797216
98148.61381092081
98148.56904129074
98148.56931163662
98148.56850136757
98148.56941476015
98148.56297145694
98148.52930338137
98148.43432456964
98148.28873239674
98148.11761949658
98147.92521156938
98147.72662302942
98147.58647559334
98147.46145258166
98147.30167258042
98147.54167807986
98147.78286581101
98147.97620995237
98148.11264691611
98148.22240248912
98148.30894136857
98148.37970204608
98148.43642177772
98148.47899551464
98148.4673877531
98148.46586449172
98148.46137863649
98148.45287420171
98148.43311638136
98148.38970647185
98148.30752523163
98148.18382707877
98148.0180920726
98147.81064515746
98147.56982776428
98147.36518750117
98147.1279254573
98146.88636920178
98147.33880083823
98147.63691927098
98147.85817905766
98148.0034075063
98148.11376302026
98148.19741756775
98148.26351905112
98148.31511391803
98148.35284093241
98148.3751465172
98148.37212712746
98148.36556501758
98148.35318068987
98148.32981353455
98148.28730055725
98148.21583366522
98148.10690500351
98147.95167052338
98147.7451694723
98147.50200270399
98147.2779500511
98147.07442123785
98147.0110242705
98147.30131072266
98147.58548143996
98147.79205536994
98147.9252645806
98148.02491343167
98148.09951981457
98148.15761631781
98148.20233301699
98148.23428606811
98148.28813459988
98148.28437667497
98148.27728841774
98148.26444427235
98148.24241395378
98148.20561385757
98148.14669273995
98148.05660014534
98147.92521337557
98147.74982347933
98147.54798646731
98147.35108613409
98147.22135266075
98147.25925551697
98147.4233027672
98147.61939809092
98147.7692225767
98147.87281086431
98147.95249283595
98148.01297617935
98148.06028175898
98148.09660039541
98148.1219208418
98148.20212883319
98148.19827066387
98148.19172029718
98148.18034467002
98148.16199472582
98148.13290234127
98148.08781926376
98148.01960525196
98147.9207615155
98147.79096432799
98147.64554305997
98147.51306326796
98147.43970779071
98147.46935540096
98147.56319888913
98147.67527348037
98147.76532354322
98147.8337910541
98147.88952475475
98147.93345458122
98147.96860766519
98147.99577331152
98148.01404531985
98148.11445106158
98148.11084716508
98148.10530921174
98148.09606408254
98148.08182860806
98148.06015905696
98148.0275492238
98147.97923352271
98147.91061677902
98147.82229852508
98147.72599212179
98147.64065655359
98147.59069682103
98147.59681215345
98147.64816834651
98147.70727542584
98147.75497017037
98147.79395200888
98147.82777200176
98147.8558787712
98147.879235758
98147.89746032964
98147.90886808507
98148.02449297855
98148.02122402321
98148.01666103266
98148.00932714326
98147.99845849269
98147.98247311187
98147.95918477049
98147.9258267102
98147.88000189609
98147.82214457
98147.75878770737
98147.70337771547
98147.66969142086
98147.66581629397
98147.68414428379
98147.70706316938
98147.72643622132
98147.74408703549
98147.76090648457
98147.77596644568
98147.78917660404
98147.79948160383
98147.80474873312
98147.93132442632
98147.92834028455
98147.92448537836
98147.91849760324
98147.90990302063
98147.89766844807
98147.88048442069
98147.85687142311
98147.82575543319
98147.78764331515
98147.7460900937
98147.70837633219
98147.68309474571
98147.67379347027
98147.67406614897
98147.67555937869
98147.67743637253
98147.68093209504
98147.68581160373
98147.69113476314
98147.69637653363
98147.70021098018
98147.70039210121
98147.83401803057
98147.83123357878
98147.82779553485
98147.82261729173
98147.81538776336
98147.80540881044
98147.79188177298
98147.77401230317
98147.75134266217
98147.72433722411
98147.69508739623
98147.66757399729
98147.64645284304
98147.63354764711
98147.62522965977
98147.61679440428
98147.60956421019
98147.60466961992
98147.6018477608
98147.60042195304
98147.59981401532
98147.59868933429
98147.59493031095
98147.7323871039
98147.72973674178
98147.72649403855
98147.72173029491
98147.71523522331
98147.70652730022
98147.69510428701
98147.6805205596
98147.66258193737
98147.64165582783
98147.61902069989
98147.59693298231
98147.57789646194
98147.56293047576
98147.55040489681
98147.53815592978
98147.52668410243
98147.51725553795
98147.50980564268
98147.50396297852
98147.49927080386
98147.49453195311
98147.48788954254
98147.62653896101
98147.62398010243
98147.62078914155
98147.61618396825
98147.6100226542
98147.60197105948
98147.59170705747
98147.57897316183
98147.56369437432
98147.5461508364
98147.5271514077
98147.50802273265
98147.49018259867
98147.47433362399
98147.4599919061
98147.44623776093
98147.43296083137
98147.42120866434
98147.41108435931
98147.40245339506
98147.3950092321
98147.38774028262
98147.3790903311
98147.51683144226
98147.51434172301
98147.51112509138
98147.506534304
98147.50047764521
98147.49272673327
98147.4830770117
98147.47138416173
98147.45763896838
98147.44206635527
98147.42520664117
98147.40787817932
98147.39094404722
98147.37495812302
98147.35994483519
98147.34554101911
98147.33156482372
98147.31868178349
98147.30706888586
98147.29673362763
98147.28749211573
98147.27851680272
98147.26853686335
98147.40375460956
98147.4013248837
98147.39805157526
98147.39340837601
98147.38734217784
98147.37970335013
98147.37036911747
98147.35926968411
98147.3464372226
98147.33206361766
98147.31653635656
98147.30039999861
98147.28422898542
98147.26847023392
98147.2533243431
98147.23873664367
98147.22467471969
98147.21129358097
98147.19890752976
98147.18758209047
98147.17721478805
98147.16713905512
98147.1563311567
98147.28784759459
98147.28547589641
98147.28214345899
98147.27742955618
98147.27131154037
98147.26370010586
98147.25453261806
98147.24379237776
98147.23154080828
98147.21795078325
98147.20332104816
98147.18804568119
98147.17254254839
98147.15717898104
98147.14221152206
98147.12773660409
98147.1137327679
98147.10024066942
98147.08752105306
98147.07567044882
98147.06464053362
98147.05389769681
98147.04262124958
98147.16964213083
98147.16732946489
98147.16395047872
98147.15917442796
98147.15300286846
98147.14539338854
98147.13632909347
98147.12583283491
98147.11398821413
98147.10095835205
98147.08699006791
98147.07239109132
98147.05748711838
98147.04258258312
98147.02792928476
98147.0136774092
98146.99984329953
98146.98643869448
98146.97364146994
98146.96155975621
98146.95017819948
98146.93906864664
98146.92757208986
98147.0496289219
98147.04737673051
98147.04396968149
98147.03915217365
98147.03294489162
98147.02534192341
98147.01636146377
98147.00605608543
98146.99452614407
98146.98192982348
98146.96848241606
98146.95443941191
98146.94006920587
98146.92562883449
98146.91134365452
98146.89737188334
98146.88377169144
98146.87056758047
98146.85783399221
98146.84570219764
98146.83417279118
98146.82289879232
98146.81134768447
98146.92824088692
98146.92604974726
98146.92263350006
98146.91779830914
98146.91157982753
98146.90400032443
98146.89510477595
98146.88496807139
98146.8737030911
98146.86146532802
98146.84844978426
98146.83487818493
98146.82098053006
98146.80697854003
98146.79307226674
98146.7794163604
98146.76609188353
98146.75310976266
98146.7405239058
98146.72845331467
98146.71690691322
98146.70560066433
98146.69410064876
98146.8058476422
98146.80371673904
98146.80030759865
98146.79547653465
98146.78927070237
98146.78173382641
98146.77293113063
98146.76295408442
98146.75192470774
98146.73999672997
98146.72735153978
98146.71418834783
98146.70071048239
98146.68711219053
98146.67356929801
98146.66022598482
98146.64717102014
98146.63442906849
98146.62203754659
98146.61009247218
98146.59860934025
98146.58735332172
98146.57596733085
98146.68275676692
98146.68068384413
98146.67729428824
98146.67248477328
98146.66631109132
98146.65883303661
98146.65013091285
98146.6403082413
98146.62949339068
98146.61783862984
98146.6055157456
98146.59270797223
98146.57959911146
98146.56636311421
98146.55315696943
98146.54011266526
98146.52731989179
98146.51481472042
98146.50262891538
98146.49083951119
98146.47946412808
98146.46830551472
98146.4570662129
98146.55921871253
98146.55720023974
98146.55383866558
98146.54906293796
98146.54293518937
98146.53552706655
98146.5269298513
98146.5172554879
98146.50663653189
98146.49522395351
98146.48318251304
98146.47068357817
98146.45789629944
98146.44497942724
98146.43207555688
98146.41930563688
98146.40675729119
98146.39447688304
98146.38249115917
98146.37086565408
98146.3596179036
98146.34857918319
98146.33749803889
98146.43543321696
98146.43346465401
98146.4301356768
98146.42540096813
98146.41932723636
98146.4119946618
98146.40350215076
98146.39396727255
98146.38352530419
98146.37232595742
98146.36052849625
98146.34829528365
98146.33578459012
98146.32314381827
98146.31050435413
98146.29797759934
98146.28564738246
98146.27356476714
98146.26177019782
98146.25030343312
98146.23918662804
98146.22827308919
98146.21734680534
98146.31155611014
98146.30963217885
98146.30633719779
98146.3016464329
98146.29562978286
98146.2883731926
98146.27998056461
98146.27057330501
98146.26028828643
98146.24927377258
98146.23768452543
98146.22567608068
98146.21339863444
98146.20099107276
98146.18857649309
98146.17625927033
98146.16412054791
98146.15221451761
98146.1405793466
98146.12925539089
98146.11826113354
98146.10746611186
98146.0966812104
98146.18770589541
98146.18582081798
98146.18255873077
98146.17791137825
98146.17195059849
98146.1647659334
98146.15646461192
98146.14717055879
98146.13702106231
98146.12616277234
98146.11474683085
98146.10292364833
98146.09083740941
98146.07862067912
98146.06639054244
98146.05424620763
98146.04226615367
98146.0305052136
98146.01900249593
98146.00779939181
98145.99691143987
98145.9862200638
98145.97555619128
98146.06396788961
98146.06211541996
98146.05888375058
98146.05427700355
98146.0483679592
98146.0412483179
98146.03302738786
98146.02382997653
98146.01379323179
98146.00306218253
98145.9917850912
98145.98010859839
98145.96817239952
98145.9561045228
98145.94401787761
98145.93200808229
98145.9201512483
98145.90850219467
98145.89710213705
98145.88599342261
98145.87519008361
98145.86458196779
98145.85401453378
98145.94038626249
98145.9385593435
98145.93535599111
98145.9307869741
98145.9249253624
98145.91786353204
98145.9097115175
98145.90059420874
98145.89064800451
98145.88001637328
98145.86884534072
98145.85727875642
98145.84545316047
98145.83349347867
98145.82150982895
98145.80959542246
98145.7978246384
98145.78625234877
98145.77492220463
98145.76387846831
98145.75313405298
98145.7425842876
98145.73208595434
98145.81695182897
98145.81514427152
98145.81196410376
98145.80742615004
98145.80160419023
98145.79459114811
98145.7864966936
98145.77744480711
98145.76757031059
98145.75701473445
98145.74592197553
98145.73443346609
98145.72268349487
98145.71079505207
98145.69887679271
98145.68702104989
98145.67530226223
98145.66377659557
98145.65248866356
98145.64148245468
98145.6307705747
98145.62025334989
98145.60980029224
98144.99690753157
98145.57164550657
98145.14797030193
98145.47481727309
98134.35892814008
98143.91175108521
98145.20392677892
98145.66497642848
98147.71001872796
98147.44117756438
98146.27042732738
98146.11124064056
98150.00342258312
98149.38300318977
98148.68229208661
98148.11871693929
98150.0253847118
98149.80570115964
98149.57747618404
98149.33872242739
98150.02036451605
98150.01322915913
98149.96796848517
98149.87433032923
98150.10197864176
98150.13579500427
98150.12289160577
98150.06587085147
98150.05349246312
98150.08113500026
98150.0778522825
98150.03983256868
98149.89763647471
98149.92054674478
98149.92212211112
98149.89748453393
98149.69844955043
98149.71864752607
98149.72267439505
98149.70830032554
98149.49160987783
98149.50998028055
98149.5160532353
98149.50952704305
98149.29389172493
98149.31022717404
98149.31822599114
98149.31737121794
98149.11095396301
98149.12572581619
98149.13448613082
98149.13725010499
98148.94187929263
98148.95602256979
98148.96532376255
98148.97012078254
98148.78490486158
98148.79848909385
98148.80816628298
98148.81438004455
98148.63856493629
98148.65146670022
98148.66112833282
98148.668129335
98148.50161528822
98148.51361887914
98148.52286012287
98148.53005757373
98148.37291161974
98148.38371023658
98148.39214376158
98148.39905857864
98148.25126114645
98148.26051461817
98148.26778600969
98148.27402542619
98148.13532124186
98148.14274233587
98148.14857417878
98148.15383304669
98148.02361877123
98148.02904347106
98148.03327493333
98148.03735100683
98147.91466425931
98147.9180835958
98147.92068542287
98147.92348652158
98147.80709905403
98147.80864839347
98147.80970977644
98147.81124529419
98147.69981750679
98147.69973403805
98147.69942864717
98147.69978709711
98147.59202438545
98147.59059315077
98147.58913786642
98147.58845762827
98147.48322179151
98147.48072931466
98147.47834850558
98147.47679006655
98147.37315052269
98147.36985526509
98147.36675703728
98147.36448192487
98147.26171767976
98147.25783721803
98147.25420182034
98147.25135964714
98147.14893405806
98147.14464366743
98147.14062045643
98147.13734259433
98147.03487058547
98147.03030698963
98147.02601572199
98147.02241316905
98146.91963002736
98146.9148967915
98146.91043067529
98146.90659422397
98146.80332781663
98146.79850106822
98146.79393053919
98146.78993234006
98146.68607964052
98146.68121355794
98146.67659019725
98146.67248601063
98146.56799420282
98146.5631257991
98146.55848600241
98146.55431767316
98146.44916945769
98146.44432249175
98146.43969062499
98146.43548850129
98146.32969106649
98146.32487919545
98146.32027022712
98146.31605533558
98146.20963206775
98146.2048613775
98146.20028306883
98146.19606900416
98146.08905325845
98146.08432420231
98146.07977883726
98146.07557336254
98145.96800404046
98145.96331300489
98145.95879879381
98145.95460515124
98145.84652356844
98145.84186395635
98145.83737590244
98145.83319366878
98145.72463796004
98145.72000144176
98145.71553317789
98145.71135970265
98145.60238538701
98145.59776454813
98145.59330906106
98145.58913537352
98146.95366280244
98147.84384455779
98148.38400614572
98148.7562772098
98149.0112671317
98149.18850816754
98149.32031344919
98149.42112613728
98149.50061456078
98149.56463122857
98149.61729257369
98149.66047696267
98149.69580248646
98149.72444786818
98149.74726589116
98149.76488033311
98149.77774349412
98149.78617161947
98149.7903661234
98146.4736037703
98147.49025258415
98148.27625527224
98148.71946189001
98148.9883351508
98149.161169256
98149.28064420982
98149.36897189404
98149.43757121307
98149.49287195047
98149.537885396
98149.57487439152
98149.60527607935
98149.63004811446
98149.64987025647
98149.66523313032
98149.67648936395
98149.68388431508
98149.68757463935
98146.6517638092
98147.68545206546
98148.39691405716
98148.80185026331
98149.02858095689
98149.1676761956
98149.2618601922
98149.33094617052
98149.38465041344
98149.42887925194
98149.46490652245
98149.49475728229
98149.51952375565
98149.53988946059
98149.55631859043
98149.56913894958
98149.57858408487
98149.58481642025
98149.58794131185
98147.98541773747
98148.33841346532
98148.72697528872
98148.97346724902
98149.11245061038
98149.19816991265
98149.25778621713
98149.30338944054
98149.34069779787
98149.37108642001
98149.39688771027
98149.41887392566
98149.43752276846
98149.45313737051
98149.46591957506
98149.47601082675
98149.48351264805
98149.48849720272
98149.49101443234
98149.04248916465
98148.9739958954
98149.06388272451
98149.14994914035
98149.20052199911
98149.23403649857
98149.25899053249
98149.28031467456
98149.29922223576
98149.31620573186
98149.33167836025
98149.34565425341
98149.3580630293
98149.36882685657
98149.37788097218
98149.38517827488
98149.39068766688
98149.39439113537
98149.39628313431
98149.64983766395
98149.42777752348
98149.33342756632
98149.29817134445
98149.27876810204
98149.26418258318
98149.25708554543
98149.25541303247
98149.25733978912
98149.26159488564
98149.26724207016
98149.27354057677
98149.27992542658
98149.2859775273
98149.29139150208
98149.29594896453
98149.29949775209
98149.30193722706
98149.30321056557
98149.89395991452
98149.65506913658
98149.49281111767
98149.39035160758
98149.32228820017
98149.27516544562
98149.24377522404
98149.22370473262
98149.21151947031
98149.20477442969
98149.20172555788
98149.20110269338
98149.20197624512
98149.20366664573
98149.20567928888
98149.2076578353
98149.20935081954
98149.2105888964
98149.2112718889
98149.91259151504
98149.70901998904
98149.54109172136
98149.41701794777
98149.32692635643
98149.26159683619
98149.21490430657
98149.18204987611
98149.15929304018
98149.14384201047
98149.13363450448
98149.12714369313
98149.12323779384
98149.12107864198
98149.12004811694
98149.11969503082
98149.11969694133
98149.1198339907
98149.1199731683
98149.81040205713
98149.65522731924
98149.5092478877
98149.38949958108
98149.2957078952