/*--------------------------------*- C++ -*----------------------------------*\
| =========                 |                                                 |
| \\      /  F ield         | OpenFOAM: The Open Source CFD Toolbox           |
|  \\    /   O peration     | Version:  2206                                  |
|   \\  /    A nd           | Website:  www.openfoam.com                      |
|    \\/     M anipulation  |                                                 |
\*---------------------------------------------------------------------------*/
FoamFile
{
    version     2.0;
    format      ascii;
    arch        "LSB;label=32;scalar=64";
    class       volScalarField;
    location    "0.15";
    object      p_rgh;
}
// * * * * * * * * * * * * * * * * * * * * * * * * * * * * * * * * * * * * * //

dimensions      [1 -1 -2 0 0 0 0];

internalField   nonuniform List<scalar> 
2268
(
100758.0531304274
100757.4922632881
100751.7607109297
100741.5733194917
100726.9935574199
100707.6999637428
100683.3412731634
100653.599843732
100618.2263907079
100577.1393828991
100530.5961737672
100479.4859717924
100425.7452756533
100372.9741114291
100327.5417014836
100300.6157755525
100311.1414216397
100388.2576841209
100568.7493817586
100886.8973434621
101349.901250612
101882.9666995107
102525.2482513006
100756.1192980628
100755.5262042089
100749.7004301347
100739.4279850963
100724.7291806021
100705.2708891137
100680.6952449182
100650.6678038967
100614.9137652335
100573.3162284669
100526.0810955719
100474.0200055501
100418.9611412887
100364.3609549963
100316.406661711
100286.0382139004
100291.891316293
100362.7450447604
100535.8883116675
100847.8522642325
101313.2111964021
101856.4123756893
102543.2270837392
100753.0248077916
100752.408671079
100746.4808778327
100736.1157155926
100721.2740487124
100701.6035427972
100676.7320823404
100646.2942417426
100609.9678298743
100567.5677826118
100519.1990912572
100465.5230336611
100408.1483616885
100350.207140543
100297.4201608355
100260.111897025
100256.1864927064
100313.7997462198
100470.2345755667
100765.3600225788
101224.4826409016
101770.1291767253
102507.464223914
100748.6969773042
100748.0257811977
100741.9512668376
100731.4364806423
100716.3750688859
100696.3882017025
100671.078315379
100640.0326687046
100602.8582628751
100559.2673387065
100509.2129276472
100453.1311918594
100392.2970658003
100329.3332727238
100269.2122246439
100221.2624268213
100202.1918425505
100239.0220002667
100368.6330823488
100634.0396614153
101075.770907663
101614.9233264287
102409.0008277624
100743.2824867482
100742.53157093
100736.2818813817
100725.5741619983
100710.2334996212
100689.8494352712
100663.988251894
100632.1752399104
100593.9259710999
100548.8189295538
100496.6089259144
100437.4387215805
100372.1411231219
100302.6417663527
100232.860455653
100170.6883857029
100131.0259212871
100138.9615910411
100230.0501074893
100448.5679801365
100856.9002129047
101375.1522666918
102218.4709297442
100736.8262888878
100736.0104259724
100729.5975077019
100718.6912448109
100703.052123829
100682.2337383577
100655.7568506176
100623.0723966709
100583.5870969628
100536.7184986104
100481.9824076063
100419.1694137557
100348.5747904142
100271.2452463066
100189.7286424172
100109.9743959213
100044.2529785162
100014.3093185553
100053.2324743449
100200.0719428577
100549.6127583987
101020.262479303
101880.0857832148
100728.6678059474
100727.8057279084
100721.2399837128
100710.11940489
100694.1497062023
100672.842430972
100645.6628390055
100611.9756692036
100571.0628946311
100522.1570933504
100464.4990858662
100397.4789861269
100320.783465313
100234.4561369584
100139.4623150698
100039.4167055042
99943.04975984922
99866.59394423284
99840.85014334586
99879.29549171968
100118.1970141199
100495.8208312412
101315.1701950933
100717.5776281562
100716.5171257899
100709.653955381
100698.110299647
100681.557286147
100659.4539743268
100631.1921300871
100596.0309992696
100553.1033705702
100501.4258553108
100439.9201758391
100367.5158981649
100283.2163100977
100186.0235061229
100075.3655009622
99952.39040723981
99821.04355605297
99687.67068701265
99562.81943898588
99453.23613714022
99454.28871892611
99715.43292865151
100442.3979030898
98148.97186983585
98149.03342095093
98149.15015445539
98149.29594973734
98149.44541047157
98149.58575626535
98149.71123000349
98149.81795441074
98149.91141229775
98149.98993687335
98150.05550937478
98150.10988420661
98150.15458193445
98150.1908230892
98150.21962318223
98150.24178249447
98150.25790935464
98150.26844090235
98150.27365762623
98148.95852819552
98149.02309385101
98149.14474300228
98149.29455785622
98149.44643287196
98149.5879954493
98149.71351053237
98149.82118129908
98149.91414152717
98149.9923511849
98150.05763527106
98150.11176867662
98150.15623029518
98150.19228115045
98150.22093070793
98150.24297504472
98150.25901909408
98150.2694979345
98150.27469294913
98148.92914219425
98149.00154317429
98149.13396536239
98149.29201470238
98149.4488151641
98149.59281091002
98149.71886008947
98149.82714976218
98149.91959641715
98149.99719701981
98150.06188436106
98150.11548368842
98150.15949012828
98150.19516356572
98150.22351232926
98150.2453264588
98150.26120445829
98150.27157608049
98150.27671850332
98148.88012581473
98148.96715265747
98149.11755624696
98149.28854107042
98149.4529013154
98149.60048999656
98149.72731893028
98149.83604598585
98149.92780058456
98150.0044785935
98150.06825403987
98150.12104261418
98150.16435744017
98150.19946143377
98150.22735744376
98150.24882557595
98150.26445422735
98150.2746647665
98150.27972855017
98148.80432448303
98148.91737053843
98149.09525185436
98149.28458632035
98149.45921901075
98149.61138926384
98149.73903876002
98149.84803538995
98149.9387854455
98150.01418765464
98150.07672350445
98150.12842150485
98150.17080862602
98150.20515266691
98150.23244610417
98150.25345450394
98150.26875216773
98150.27874895296
98150.28370865702
98148.68913108089
98148.84896318444
98149.06742636902
98149.2811137762
98149.46860605243
98149.62545697484
98149.75479145613
98149.86329585685
98149.95258591187
98150.02630812538
98150.08727376549
98150.13758581462
98150.1788097394
98150.21220621515
98150.23875062306
98150.2591886329
98150.27407611714
98150.28380817287
98150.28863900698
98148.51464037497
98148.75840001882
98149.03454945757
98149.27886379519
98149.48200819876
98149.64328684761
98149.77473397346
98149.8819518227
98149.96922126069
98150.04080819598
98150.09986660403
98150.14848906924
98150.18831718087
98150.22058268634
98150.24623604253
98150.26599694518
98150.28039814522
98150.28981660581
98150.29449476469
98148.25783796595
98148.66017634448
98148.99163656168
98149.27575586707
98149.49952390755
98149.66493318049
98149.79865656215
98149.90402621642
98149.98868447728
98150.05763291044
98150.11437957667
98150.1610670977
98150.19927589789
98150.23023358248
98150.25485997055
98150.27384224275
98150.28768506658
98150.29674386412
98150.30124693034
100698.4810698691
100696.931629312
100689.6118763915
100677.3181127399
100659.7411622711
100636.2596104696
100606.1331685061
100568.4399646074
100522.0564922444
100465.6323975693
100397.5468169352
100315.9459236829
100218.6783961522
100103.0454354396
99965.97202833048
99803.97175793794
99610.48039994563
99369.4891792266
99039.64060414625
98554.25613633597
98297.96528588266
98528.99321988948
98814.6357822674
100672.6410726939
100670.7533919486
100663.0438733705
100650.1324019059
100631.6115744992
100606.7616191183
100574.6762161408
100534.1802875691
100483.7940551679
100421.6455628883
100345.3302101208
100251.9125993925
100137.7525480901
99997.92315627495
99825.37370713353
99608.2653166026
99330.07910578755
98923.34793681483
98345.06515117265
98157.93542964292
98157.18191139793
98159.03573067742
98625.31453799499
100643.5707382818
100641.2295116174
100632.9864931715
100619.3385530969
100599.7676214188
100573.4499930164
100539.3149236553
100495.9315593064
100441.4710378607
100373.5441387637
100288.9573854967
100183.8317624061
100053.4392687196
99890.85261985495
99683.33457243255
99412.01676705023
98982.07472804685
98309.91032639823
98152.59230370501
98153.49394813647
98154.01184559717
98153.66677205957
98169.68301455202
100612.3308126888
100609.5693726268
100600.8692229146
100586.6068975038
100566.1747433604
100538.6591311848
100502.8475587533
100457.0820842293
100399.2388550044
100326.4583496234
100234.8059783011
100119.8264396739
99976.13291416227
99793.18768617
99549.41979176557
99179.59748841768
98379.92169339975
98151.83081782468
98151.139010809
98151.75878175153
98152.41549197912
98152.45394933557
98152.08602894742
100579.8615587376
100576.726130274
100567.6791191346
100552.9766403151
100531.95041779
100503.6243214453
100466.6830093311
100419.2916218703
100359.1193728167
100282.8930970699
100186.0483242357
100064.2011924413
99910.82042372749
99706.92007108005
99431.41788688082
98616.28377199915
98151.6755413482
98150.75419234514
98150.83947833104
98151.13578159371
98151.53535412198
98151.74089549961
98151.53246939658
100547.0883052726
100543.6467900547
100534.3984033304
100519.4875320329
100498.2190841078
100469.592513191
100432.2434545112
100384.2313177797
100323.1340443761
100245.3129513407
100145.8365550264
100021.1755343087
99860.99667666428
99637.03857102426
99087.61074213714
98225.16852656825
98151.24737450383
98150.81359112985
98150.7755379556
98150.90910626792
98151.17670997941
98151.3379003697
98151.2637527552
100514.8723622575
100511.2099502235
100501.9271455603
100487.0745010261
100465.9667097459
100437.6245646131
100400.6994940751
100353.2364187448
100292.8515315729
100215.5857175107
100116.6276709155
99993.36559660334
99825.94370012041
99590.98510485764
98523.71151914883
98150.71907867194
98150.69907496222
98150.67374195596
98150.7291667766
98150.86872364829
98151.07345920936
98151.19797826909
98151.30844616515
100483.9745007315
100480.1862678583
100471.042053037
100456.5235370219
100435.9920458439
100408.5391899281
100372.9065274458
100327.2359434722
100269.3173021668
100194.9918373223
100100.2557675887
99982.01943001781
99808.27258339859
99152.26203323482
98209.98396640799
98150.52525346541
98150.51537538496
98150.60866712556
98150.7245006834
98150.87057542735
98151.04494981536
98151.15791290898
98151.36559966447
100455.0542183563
100451.2359704255
100442.3925808686
100428.4653556967
100408.8944787128
100382.8934550271
100349.3676492807
100306.6822804245
100252.9368665547
100184.0665368284
100097.445489352
99987.20339990217
99817.27660947513
98610.6372412685
98150.73005625738
98150.416983481
98150.4732197398
98150.60229140359
98150.73298963746
98150.87312821191
98151.02764327457
98151.1434107761
98151.34654533568
100428.6469204298
100424.8841862885
100416.4730786922
100403.3400816057
100385.0270526837
100360.8997401905
100330.0966538515
100291.3217031478
100243.1066201853
100181.9005924387
100106.5280231307
100007.8825191035
99681.85443014231
98320.75067873168
98150.6256604839
98150.51545680861
98150.52812470765
98150.63129970981
98150.74660225719
98150.87202173124
98151.0067509348
98151.12033709275
98151.27812240983
100404.905486394
100401.2623065938
100393.3611668022
100381.1339565786
100364.2210177438
100342.1561038119
100314.3564831595
100279.988094153
100238.1711369604
100186.2632537284
100123.9729826579
100042.7956839153
99280.9279309922
98194.08934175472
98150.51018817589
98150.54741635488
98150.5633821767
98150.65650802461
98150.75653783923
98150.86595684943
98150.98115084253
98151.08374820721
98151.20027080351
100383.4938019338
100380.0235560951
100372.6777695671
100361.4257826919
100345.9899754241
100326.0631316604
100301.3858143928
100271.8322661279
100237.4551490219
100196.9869712238
100148.7071919117
99988.03570402991
98690.27806330737
98151.06801166313
98150.44917528913
98150.52197670689
98150.58169778096
98150.66916286948
98150.75821372931
98150.85439510549
98150.95310097432
98151.04260107648
98151.13087775744
100365.2022103126
100361.9615292673
100355.2910171659
100345.2643857963
100331.6779929047
100311.6696967389
100265.8841546474
100170.3309242032
99997.41533772554
99705.8250250556
99196.14052405795
98636.65775388219
98198.01909455766
98150.92787744287
98150.65087763929
98150.58657140775
98150.61210322696
98150.67533698815
98150.75362904403
98150.83943602702
98150.92579829246
98151.0041622409
98151.07447057689
99902.29675383946
99865.06372163352
99796.52768604716
99688.38112322667
99508.7035662706
99259.39727345096
98980.01036726742
98695.06527335542
98434.87123055165
98217.55862888813
98150.7629230379
98150.6167792786
98150.53029438735
98165.13356876337
98150.70184077931
98150.55886821938
98150.60502028004
98150.66648411806
98150.74289159218
98150.82316568976
98150.9015631654
98150.97171850907
98151.0307747316
98278.89012145826
98257.21942726582
98221.32550537954
98174.76046202425
98151.7881936208
98151.91250918759
98151.67724569385
98151.30191310022
98151.0871629983
98150.81141908407
98150.66594684974
98150.53316371496
98150.62568436052
98187.77110358188
98151.25277372749
98150.46462416413
98150.55771446499
98150.64112545014
98150.72686897409
98150.80762796693
98150.88212870054
98150.94673919755
98150.99867793539
98151.51865600135
98151.51120494117
98151.50865260593
98151.5098037149
98151.51610767176
98151.49320541462
98151.33179836512
98151.09195497021
98150.87204603647
98150.64657652196
98150.46949982588
98150.38760910591
98152.01827053085
98190.01781939287
98150.9909327816
98150.35460945797
98150.49988699197
98150.61261981472
98150.71220802555
98150.79659471728
98150.86943512947
98150.93006912874
98150.97703155631
98151.3103139983
98151.30689078591
98151.29912824424
98151.29150047946
98151.26278141535
98151.2052963045
98151.08600477572
98150.91492729234
98150.71780429158
98150.50887245945
98150.31876610301
98150.22666247615
98153.75473492545
98183.47492483551
98150.17511888834
98150.27516101382
98150.462010487
98150.59858443396
98150.70831863218
98150.79485271602
98150.8656122536
98150.92233185956
98150.96490574615
98151.17490881788
98151.1697528074
98151.16048918813
98151.14642367428
98151.11485301613
98151.05701818774
98150.96152357585
98150.82646354502
98150.65287233522
98150.45033223229
98150.24252684021
98150.33620690815
98153.09046321148
98149.96758766867
98150.07534463127
98150.2490738691
98150.46642239188
98150.61202106198
98150.72236385205
98150.80601742558
98150.87211916962
98150.92371443611
98150.96144177369
98151.11704286397
98151.11262600194
98151.10451955012
98151.09004873222
98151.06400651963
98151.0174433986
98150.94325577338
98150.83425046242
98150.68608602934
98150.50037562643
98150.33184883527
98150.47613210014
98150.19310250526
98150.00291197434
98150.1259089536
98150.31588384308
98150.52286307272
98150.65658136486
98150.75620256719
98150.83080975414
98150.8889069428
98150.93362416624
98150.96557752942
98151.12964604664
98151.12617275635
98151.11938348552
98151.10705663507
98151.08576344042
98151.05042627106
98150.99385816287
98150.90843827333
98150.78760593865
98150.63655973255
98150.5099559106
98150.62810912772
98150.46773237952
98150.26341538112
98150.33866115786
98150.46760165208
98150.62301595887
98150.72683521589
98150.80646959707
98150.86695667193
98150.91426288983
98150.95058203991
98150.97590270043
98151.17545603972
98151.17194390822
98151.16571135428
98151.15486803274
98151.13737183122
98151.10926284277
98151.06546139299
98150.99981226615
98150.90722671172
98150.7916759057
98150.68671939739
98150.97927876706
98151.02586798201
98150.89547076024
98150.57513343434
98150.64273242903
98150.74265610505
98150.81045513171
98150.86619215703
98150.91012563698
98150.94527913864
98150.97244522275
98150.99071730419
98151.21659029443
98151.21287575584
98151.20723298294
98151.19779523644
98151.18326620023
98151.16130165783
98151.12847226778
98151.08026582055
98151.01287738357
98150.92823943033
98150.83946826294
98150.77874624355
98150.86478229579
98150.88035918745
98150.76162353373
98150.798556218
98150.85559038889
98150.89321285942
98150.92713575235
98150.95523999922
98150.97859735783
98150.99682224273
98151.00822992716
98151.24590802271
98151.2426466273
98151.23809312838
98151.23078036199
98151.21993624265
98151.20395124839
98151.18065220566
98151.14734994424
98151.10182010413
98151.04476825632
98150.9829382367
98150.92966379966
98150.89787417215
98150.89512806122
98150.91188038561
98150.92486159282
98150.94957202348
98150.9660069767
98150.98296482852
98150.99801759605
98151.01122808733
98151.02153325531
98151.02680020875
98151.2761528894
98151.27316944297
98151.26931411728
98151.26332602312
98151.25473497911
98151.2425144297
98151.22535229629
98151.20175102472
98151.1706118501
98151.13245494977
98151.09091642915
98151.05332557693
98151.02814684914
98151.01865676897
98151.01835138624
98151.01890186993
98151.02272746818
98151.02558841919
98151.03055801097
98151.03587579397
98151.04111764289
98151.04495211819
98151.04513302183
98151.30146275196
98151.2986775084
98151.29523872038
98151.29005984648
98151.28282917586
98151.27284711422
98151.25931433153
98151.24143801126
98151.21876352496
98151.19175421122
98151.16249398844
98151.1349581149
98151.11379528379
98151.10081043834
98151.09238644138
98151.08394121176
98151.07716576023
98151.07206953022
98151.069280283
98151.06785262808
98151.06724451586
98151.06611974865
98151.06236053104
98151.32252284861
98151.31987190805
98151.3166284402
98151.31186408353
98151.30536877837
98151.29666109825
98151.28523864227
98151.27065526527
98151.25271595588
98151.23178751097
98151.2091482831
98151.1870543205
98151.16800832911
98151.15302854504
98151.14048785933
98151.12824383815
98151.1168369833
98151.10736943672
98151.09992601299
98151.09408294223
98151.0893904783
98151.08465146192
98151.07800892529
98151.33936520646
98151.33680576819
98151.33361402122
98151.329008128
98151.32284630004
98151.31479438838
98151.30453011562
98151.29179578807
98151.27651625911
98151.25897161516
98151.23997071131
98151.22084021241
98151.20299793109
98151.18714652404
98151.17280240422
98151.15904717597
98151.14577495016
98151.13401773448
98151.12389370879
98151.11526241945
98151.10781791876
98151.10054876529
98151.09189877167
98151.35234690673
98151.34985663662
98151.34663923419
98151.3420476769
98151.33599038669
98151.32823902652
98151.31858896742
98151.30689572897
98151.29314992034
98151.27757635573
98151.26071535175
98151.2433853499
98151.22644955431
98151.21046196074
98151.19544709825
98151.18104193249
98151.16706494425
98151.15418079126
98151.14256730658
98151.13223158629
98151.12298969558
98151.11401416146
98151.10403425412
98151.36195912072
98151.3595289019
98151.356254881
98151.3516109175
98151.34554401897
98151.33790461857
98151.32856991941
98151.3174700229
98151.30463696385
98151.29026251605
98151.27473412543
98151.25859638593
98151.24242382625
98151.22666346899
98151.21151601232
98151.19692687593
98151.18286375191
98151.16948167616
98151.15709491435
98151.14576893418
98151.13540122064
98151.1253252552
98151.11451742981
98151.36874083822
98151.36636872223
98151.36303566165
98151.35832104755
98151.35220232052
98151.34459024314
98151.33542219317
98151.32468141573
98151.31242923433
98151.29883842322
98151.28420766894
98151.26893104875
98151.25342647913
98151.23806137305
98151.2230923647
98151.20861597553
98151.19461083338
98151.18111773138
98151.16839733651
98151.1565461383
98151.14551577646
98151.13477268348
98151.12349631332
98151.37322382325
98151.37091082317
98151.36753132031
98151.36275464395
98151.35658241023
98151.3489722706
98151.33990736191
98151.32941051501
98151.3175652659
98151.3045346547
98151.29056543736
98151.27596531934
98151.26106001703
98151.2461540212
98151.23149920993
98151.21724585669
98151.20341039381
98151.19000470768
98151.17720663328
98151.16512427251
98151.15374223042
98151.14263238761
98151.1311358737
98151.37589879632
98151.37364635375
98151.37023889666
98151.36542086335
98151.35921297419
98151.35160937054
98151.34262828746
98151.33232230085
98151.32079172951
98151.30819469676
98151.29474643539
98151.28070239829
98151.26633097729
98151.25188924088
98151.237602605
98151.22362936438
98151.21002778047
98151.19682249121
98151.18408796591
98151.17195545141
98151.16042550393
98151.14915116741
98151.13760004885
98151.3771986942
98151.37500737756
98151.37159081957
98151.36675519972
98151.36053618805
98151.35295609655
98151.34405994386
98151.3339226371
98151.32265704109
98151.31041860682
98151.29740228443
98151.28382975572
98151.26993100029
98151.25592774872
98151.24202009328
98151.22836274933
98151.21503686193
98151.20205345014
98151.18946656995
98151.17739517981
98151.16584817883
98151.15454154371
98151.14304145244
98151.37749315148
98151.37536213074
98151.37195275509
98151.36712133988
98151.36091504562
98151.35337763105
98151.3445743614
98151.33459673234
98151.32356676339
98151.31163815717
98151.2989922589
98151.28582823346
98151.27234937513
98151.25874992054
98151.24520571617
98151.23186099586
98151.21880460814
98151.20606131268
98151.19366867814
98151.18172272033
98151.17023892381
98151.1589824695
98151.14759634594
98151.37708976307
98151.37501676375
98151.37162702066
98151.36681720444
98151.36064310686
98151.35316455083
98151.34446187946
98151.33463864474
98151.32382322509
98151.31216787461
98151.29984434505
98151.28703582482
98151.27392607179
98151.2606890095
98151.24748163039
98151.23443596381
98151.22164177449
98151.20913523079
98151.19694824316
98151.18515788675
98151.17378178636
98151.16262269806
98151.15138321543
98151.37623899586
98151.37422046736
98151.37085872491
98151.36608271411
98151.35995456782
98151.35254595906
98151.34394820772
98151.33427329126
98151.32365378199
98151.31224064479
98151.30019861217
98151.28769900699
98151.27491092865
98151.26199308677
98151.24908806427
98151.23631683724
98151.2237670974
98151.211485306
98151.19949834961
98151.18787183746
98151.17662332288
98151.16558409423
98151.15450273886
98151.37514059548
98151.37317197896
98151.36984282624
98151.36510782444
98151.35903368586
98151.35170061803
98151.34320756503
98151.33367213105
98151.32322961499
98151.31202973054
98151.30023171993
98151.28799790243
98151.27548649244
98151.26284484114
98151.25020430796
98151.23767630916
98151.22534473556
98151.21326075018
98151.20146492646
98151.18999712629
98151.17887952959
98151.16796546076
98151.15703894541
98151.37395039933
98151.3720263984
98151.36873121407
98151.36404012375
98151.35802303698
98151.35076592826
98151.34237273822
98151.3329649096
98151.32267934091
98151.31166430327
98151.30007454104
98151.28806554721
98151.27578745823
98151.26337909969
98151.25096353005
98151.23864512843
98151.22650509546
98151.21459772241
98151.20296129461
98151.19163629221
98151.1806412279
98151.16984566313
98151.1590605223
98151.37278690419
98151.37090172872
98151.36763939868
98151.36299167879
98151.35703042346
98151.34984520759
98151.34154329942
98151.33224866161
98151.32209861152
98151.31123980948
98151.29982338269
98151.28799969939
98151.27591288075
98151.26369542397
98151.25146436566
98151.23931891102
98151.22733759334
98151.21557534675
98151.20407139754
98151.19286725986
98151.18197850787
98151.1712865883
98151.16062246985
98151.37173541854
98151.36988281425
98151.3666508624
98151.36204370891
98151.35613415579
98151.34901393819
98151.34079240465
98151.33159440197
98151.32155710827
98151.31082556461
98151.2995480192
98151.28787106846
98151.27593433979
98151.26386578685
98151.25177826533
98151.23976738844
98151.22790932437
98151.21625899943
98151.20485775113
98151.19374804152
98151.18294393802
98151.17233530155
98151.16176762196
98151.37084008822
98151.36901300786
98151.36580935275
98151.36123991648
98151.35537779103
98151.34831538711
98151.34016277789
98151.33104489147
98151.32109815569
98151.31046605039
98151.2992945852
98151.28772756313
98151.27590145385
98151.26394110813
98151.25195659349
98151.24004112299
98151.22826914173
98151.21669563616
98151.20536437958
98151.19431973416
98151.1835746327
98151.17302438915
98151.16252578098
98151.37009173937
98151.36828401443
98151.36510358531
98151.36056527609
98151.35474288513
98151.34772935862
98151.33963439045
98151.33058198309
98151.32070697351
98151.31015089413
98151.29905762724
98151.2875685748
98151.27581798672
98151.26392882036
98151.2520097201
98151.24015304145
98151.22843327631
98151.21690665635
98151.2056178456
98151.19461086472
98151.18389830571
98151.17338047326
98151.16292688275
98447.38374503469
98146.09506972136
98145.66776082593
98145.99865021638
98449.64162815458
98177.34170944802
98145.93975979931
98146.35120297235
98184.21829085569
98164.57384516613
98148.51623745551
98146.99474349736
98151.09578369983
98150.47414663447
98150.03928192062
98149.18728881828
98151.21945208394
98150.99797321635
98150.7477425454
98150.47628892185
98151.30299894277
98151.28970708221
98151.22258340057
98151.09962954922
98151.46203012564
98151.48672377122
98151.45530235887
98151.37693378463
98151.49186945424
98151.51154058399
98151.49610254951
98151.44582210486
98151.42745291538
98151.44557468586
98151.44108340523
98151.41097301825
98151.33473123753
98151.3528035693
98151.35447818656
98151.33816783428
98151.24413599647
98151.26176299216
98151.26709894619
98151.26001111261
98151.1670573279
98151.18317441767
98151.19097881208
98151.18998566085
98151.10626076871
98151.12097788192
98151.12969267659
98151.13242663552
98151.05974887883
98151.07387983208
98151.08317144755
98151.08796241086
98151.02543872803
98151.03902027967
98151.04869541153
98151.05490790537
98151.00178472008
98151.01468570033
98151.02434666011
98151.03134729904
98150.98752510393
98150.99952817384
98151.00876896369
98151.01596623227
98150.98151204792
98150.99231013084
98151.00074324817
98151.00765792887
98150.98255208992
98150.99180501973
98150.99907604339
98151.00531534055
98150.98930247327
98150.99672307231
98151.00255460398
98151.00781336847
98151.00029007252
98151.00571436863
98151.00994558437
98151.01402157606
98151.01402544638
98151.01744449514
98151.02004614199
98151.02284718331
98151.02914998779
98151.03069915454
98151.0317604134
98151.03329589432
98151.04455806418
98151.0444745252
98151.04416905463
98151.04452747981
98151.0594544526
98151.05802322835
98151.05656789317
98151.05588763255
98151.07334123805
98151.07084883651
98151.06846799608
98151.0669095288
98151.08595921891
98151.08266408306
98151.07956583211
98151.07729067911
98151.09721548138
98151.09333517632
98151.08969975807
98151.08685752816
98151.10712083316
98151.1028306137
98151.09880737375
98151.0955294352
98151.11574618617
98151.11118276189
98151.10689145137
98151.10328880131
98151.12319431506
98151.11846122789
98151.11399504369
98151.11015847258
98151.12958062005
98151.12475398801
98151.12018336373
98151.11618502394
98151.13502078722
98151.13015477548
98151.12553128631
98151.12142693822
98151.13962347606
98151.1347551034
98151.1301151513
98151.12594664528
98151.1434866402
98151.13863966851
98151.13400762169
98151.12980530832
98151.14669590397
98151.14188400959
98151.13727485019
98151.13305976416
98151.14932432224
98151.14455360291
98151.13997509808
98151.13576083633
98151.15143268637
98151.14670360921
98151.14215805204
98151.13795238237
98151.15307043344
98151.14837938311
98151.14386498102
98151.13967114268
98151.154276753
98151.14961711851
98151.145128866
98151.14094643014
98151.15507778001
98151.15044119237
98151.14597270029
98151.141799003
98151.15551163811
98151.15089058697
98151.14643477365
98151.14226082125
98147.47740278125
98148.36759945043
98148.9070542073
98149.27912715165
98149.53408495191
98149.71132250319
98149.84312768182
98149.94394052957
98150.02342907561
98150.08744582285
98150.14010722066
98150.18329164344
98150.21861718915
98150.24726258579
98150.27008062036
98150.28769507297
98150.30055824268
98150.30898636841
98150.31318081828
98147.13401165046
98148.14141908361
98148.92315135895
98149.36522007757
98149.63387803288
98149.8066814285
98149.92615307114
98150.01448056787
98150.08307994895
98150.1383807363
98150.18339421123
98150.22038322251
98150.25078491868
98150.2755569587
98150.29537910514
98150.31074198445
98150.32199822296
98150.32939317229
98150.33308342205
98147.47627211252
98148.47351216117
98149.17017300133
98149.57099199941
98149.79691367819
98149.93589285661
98150.03006421412
98150.09914912852
98150.15285330568
98150.19708214389
98150.2331094039
98150.26296014868
98150.28772660698
98150.3080922996
98150.32452142164
98150.33734177817
98150.34678691272
98150.35301924332
98150.35614403601
98148.94460258282
98149.25458895281
98149.62473084719
98149.86571385428
98150.00354178403
98150.08908805934
98150.14868512706
98150.19428661979
98150.23159478461
98150.26198332051
98150.28778454005
98150.30977069543
98150.32841948949
98150.34403405442
98150.35681623354
98150.36690747061
98150.37440928386
98150.37939382794
98150.38191093676
98150.11352368021
98150.00735533034
98150.08264323832
98150.16453617479
98150.21425516886
98150.24764334792
98150.27258323676
98150.293905944
98150.31281321061
98150.32979652417
98150.34526900685
98150.35924478307
98150.3716534674
98150.38241722588
98150.39147129323
98150.39876856578
98150.40427793891
98150.40798139051
98150.40987324704
98150.82376532236
98150.57578593031
98150.47247833201
98150.4349523636
98150.41512210709
98150.40047590426
98150.3933718031
98150.39169828063
98150.39362463655
98150.39787944115
98150.40352639457
98150.40982471894
98150.41620942774
98150.42226142276
98150.4276753226
98150.43223273625
98150.43578149298
98150.43822094164
98150.4394941199
98151.17250190218
98150.91952530987
98150.75297217847
98150.64952986105
98150.5812950797
98150.53414858204
98150.50275516108
98150.48268382554
98150.47049804058
98150.46375259511
98150.46070340293
98150.46008028681
98150.46095364421
98150.46264389885
98150.46465643749
98150.4666349144
98150.4683278529
98150.46956589441
98150.47024870929
98151.30239224003
98151.0927490083
98150.92317438495
98150.79875778932
98150.70860985966
98150.64327215713
98150.59657792031
98150.56372263086
98150.54096515203
98150.5255136117
98150.51530569958
98150.50881456825
98150.50490842096
98150.50274908188
98150.50171842168
98150.501365244
98150.50136709405
98150.50150409652
98150.50164308381
98151.31751411108
98151.1602310314
98151.01373537861
98150.89388743658
98150.8000794508