/*--------------------------------*- C++ -*----------------------------------*\
| =========                 |                                                 |
| \\      /  F ield         | OpenFOAM: The Open Source CFD Toolbox           |
|  \\    /   O peration     | Version:  2206                                  |
|   \\  /    A nd           | Website:  www.openfoam.com                      |
|    \\/     M anipulation  |                                                 |
\*---------------------------------------------------------------------------*/
FoamFile
{
    version     2.0;
    format      ascii;
    arch        "LSB;label=32;scalar=64";
    class       surfaceScalarField;
    location    "0.15";
    object      phi;
}
// * * * * * * * * * * * * * * * * * * * * * * * * * * * * * * * * * * * * * //

dimensions      [0 3 -1 0 0 0 0];

oriented        oriented;

internalField   nonuniform List<scalar> 
4432
(
6.080439334534457e-06
-6.080439362039948e-06
1.225923451246722e-05
-6.178795208709567e-06
1.850532311611455e-05
-6.246088634859161e-06
2.488134784553599e-05
-6.376024760848204e-06
3.143349354207227e-05
-6.552145726718263e-06
3.820082681264325e-05
-6.767333296773405e-06
4.522171701502434e-05
-7.020890221506449e-06
5.253134298128546e-05
-7.309625976669175e-06
6.015897049196623e-05
-7.627627513846154e-06
6.812188072673589e-05
-7.96291023553848e-06
7.642195008219839e-05
-8.300069357690473e-06
8.503992200907422e-05
-8.61797033002216e-06
9.391855702548698e-05
-8.878628328898413e-06
0.0001028981134780109
-8.979541143776426e-06
0.0001115820293074411
-8.683890454351003e-06
0.0001191748217579484
-7.592758309431801e-06
0.0001243709141107015
-5.196052809301296e-06
0.0001253607078671238
-9.897504120261017e-07
0.0001199479188697975
5.412841212340762e-06
0.0001056396951558887
1.430828111430436e-05
8.067166185425688e-05
2.496807783608236e-05
4.335532504901801e-05
3.731631865002297e-05
4.336471480335174e-05
6.123513625462765e-06
-1.220395303990958e-05
1.231034782386199e-05
-1.236562946137513e-05
1.857823807160615e-05
-1.251397893742676e-05
2.497654650490312e-05
-1.277433324997567e-05
3.154925323601056e-05
-1.312485251350287e-05
3.83371624866922e-05
-1.355524260070336e-05
4.537958673144626e-05
-1.406331451473692e-05
5.271249274290513e-05
-1.46425320313472e-05
6.036610382230113e-05
-1.528123863384468e-05
6.835996556110458e-05
-1.595677201788208e-05
7.669711566821002e-05
-1.663721951403102e-05
8.535728173254032e-05
-1.727813406476818e-05
9.428223251578613e-05
-1.780356918134076e-05
0.0001033177999592373
-1.801508625531471e-05
0.0001120871378572036
-1.745319318539695e-05
0.0001198346582093809
-1.534023589236984e-05
0.0001253173033461423
-1.06786568005407e-05
0.0001267651056613816
-2.43751878677865e-06
0.0001219332788895265
1.024470916367057e-05
0.000108266408641637
2.797520965301108e-05
8.348315111103657e-05
4.975140744590193e-05
4.623505253165474e-05
7.456445163887887e-05
8.961108854000812e-05
6.110340593024401e-06
-1.831429370585645e-05
1.227003920419107e-05
-1.852532814711878e-05
1.851871002983603e-05
-1.876264983885438e-05
2.489887096978228e-05
-1.915449426812137e-05
3.145265907427668e-05
-1.967864069804485e-05
3.8222104521232e-05
-2.032468812796448e-05
4.524769800005045e-05
-2.108890807263093e-05
5.256673862122675e-05
-2.196157273087775e-05
6.021138380569055e-05
-2.292588389935197e-05
6.820436584084873e-05
-2.394975414243687e-05
7.655296773146778e-05
-2.498582150343126e-05
8.524209008836558e-05
-2.59672529690413e-05
9.422366235340735e-05
-2.678512678018879e-05
0.0001033627111695362
-2.715410288548972e-05
0.0001123126324636216
-2.640306597250718e-05
0.0001203648826882923
-2.339243145019271e-05
0.0001263410530169338
-1.665478167425477e-05
0.0001285306680075516
-4.627108539337674e-06
0.0001246816121752374
1.409378647273573e-05
0.0001120774261606995
4.057943307871454e-05
8.780916506033355e-05
7.401973521906641e-05
5.002621376080609e-05
0.0001123474811783684
0.0001396497776715843
6.084043430141233e-06
-2.439833722990638e-05
1.220854773718547e-05
-2.46498325499065e-05
1.842661722071106e-05
-2.498071942030083e-05
2.477680808898335e-05
-2.550468523848596e-05
3.130041117812753e-05
-2.620224389372517e-05
3.80405100752775e-05
-2.706478713537065e-05
4.50389951647192e-05
-2.808739327542822e-05
5.233513151202429e-05
-2.92577091959128e-05
5.996411578945869e-05
-3.055486830257592e-05
6.795352201334466e-05
-3.193916050532206e-05
7.631806459102274e-05
-3.335036423183204e-05
8.505394136039645e-05
-3.470312471628596e-05
9.413283856179428e-05
-3.586400304192918e-05
0.0001034485697988461
-3.646978953033981e-05
0.0001126917490426672
-3.564618062052439e-05
0.000121211334188377
-3.191194762917045e-05
0.0001279256353205421
-2.336903122925761e-05
0.0001312436512698985
-7.945108278373107e-06
0.0001289276066664794
1.640982927266096e-05
0.0001180206188614606
5.148643508583628e-05
9.444988144191471e-05
9.759053419985047e-05
5.551344379170336e-05
0.0001512840403806399
0.0001951680105235383
6.04248856224042e-06
-3.044082590552415e-05
1.21208949087061e-05
-3.072823901219009e-05
1.829647603901513e-05
-3.115630066982201e-05
2.4604294464087e-05
-3.181250378896998e-05
3.108574137906396e-05
-3.268369094149026e-05
3.778508191146011e-05
-3.376412780810636e-05
4.474594438335528e-05
-3.504825589540227e-05
5.201026438222878e-05
-3.652202935235341e-05
5.961741724562195e-05
-3.816202133652009e-05
6.760139633122862e-05
-3.992313977857105e-05
7.598699835717544e-05
-4.17359664576505e-05
8.478650275199554e-05
-4.350262192585123e-05
9.399882380709035e-05
-4.507629503966231e-05
0.0001035526308082232
-4.602353697383829e-05
0.000113177229415047
-4.52706964000566e-05
0.0001222838638286123
-4.101849694460877e-05
0.0001299209401435542
-3.100604706086696e-05
0.000134697530661382
-1.272168905935886e-05
0.0001345737757082694
1.653355281882328e-05
0.0001262725062088455
5.978767778788595e-05
0.0001034444141712079
0.000120418666111668
6.264054033717097e-05
0.0001920880688795425
0.0002578083824478123
5.98516966775911e-06
-3.642599570376043e-05
1.200685571930524e-05
-3.674992519791916e-05
1.812894013885623e-05
-3.727838522869929e-05
2.438340237807276e-05
-3.806696617615147e-05
3.081236445228153e-05
-3.911265317444747e-05
3.746151363216067e-05
-4.041327715856439e-05
4.437657936991114e-05
-4.196332181638668e-05
5.160273830959088e-05
-4.374818848987108e-05
5.918443175371067e-05
-4.574371499597173e-05
6.716307572176685e-05
-4.790178398198911e-05
7.557511586870407e-05
-5.014800685028267e-05
8.445182551960352e-05
-5.237932141335881e-05
9.382378107900546e-05
-5.444821105653353e-05
0.0001036565395138823
-5.585621806212093e-05
0.0001137160312636305
-5.533008569724068e-05
0.0001234802270284387
-5.078259125041135e-05
0.0001321641599803305
-3.968990786980531e-05
0.00013871073969172
-1.926825869072194e-05
0.0001416113903753895
1.363283083264337e-05
0.0001371341069758958
6.426487507563876e-05
0.0001143821623159488
0.0001431706044821915
7.063394007088131e-05
0.0002358364609041252
0.000328442209656082
5.920490006443057e-06
-4.234648585771348e-05
1.187695410740967e-05
-4.270638945255276e-05
1.793587570208563e-05
-4.333730698413242e-05
2.412778992288039e-05
-4.425888056882158e-05
3.049575267943122e-05
-4.548061611697779e-05
3.7087061773209e-05
-4.700458645430626e-05
4.394975697179728e-05
-4.882601723421432e-05
5.11325476203907e-05
-5.093097937661694e-05
5.868538670166111e-05
-5.329655433566922e-05
6.665773509475903e-05
-5.587413265349632e-05
7.5098612135568e-05
-5.858888417220618e-05
8.405967330044352e-05
-6.134036827295868e-05
9.360296621563397e-05
-6.399145077715042e-05
0.0001037257966685303
-6.597895015824718e-05
0.0001142245014444538
-6.582866822390678e-05
0.0001246434359793254
-6.120141155012823e-05
0.000134388780745114
-4.943517129165828e-05
0.0001428103857306719
-2.76898387507307e-05
0.0001496575356317913
6.785563992813896e-06
0.0001506338670595018
6.328834333534704e-05
0.0001263067270767864
0.0001674975529754918
7.728425133057292e-05
0.0002848590171179367
0.0004057263897257594
5.860351015841311e-06
-4.820683709950407e-05
1.173813433397823e-05
-4.858417300529782e-05
1.772474736716132e-05
-4.932392026132435e-05
2.38445410964939e-05
-5.037867455542436e-05
3.014221339857059e-05
-5.17782886929595e-05
3.666695453467135e-05
-5.352932788345351e-05
4.346917009412267e-05
-5.562823310740277e-05
5.060146745688813e-05
-5.806327707447352e-05
5.81194051854142e-05
-6.08144924191172e-05
6.608131470026339e-05
-6.383604253777436e-05
7.455021506829203e-05
-6.705778489304301e-05
8.360021426593918e-05
-7.039034741907247e-05
9.332120361115959e-05
-7.371236648496026e-05
0.0001037292612958773
-7.638687322616726e-05
0.000114641684478542
-7.674092449785238e-05
0.00012567838246954
-7.223795182611484e-05
0.0001364420379434878
-6.019870910010034e-05
0.0001469055686384252
-3.815330349050227e-05
0.000158091365630062
-4.400335118201627e-06
0.0001649026454372069
5.648917512537118e-05
0.0001323768139036845
0.0002000232244567584
7.804042620939226e-05
0.0003391954898232113
0.0004837670051010682
-1.019871389333019e-05
1.027573164311229e-05
-1.38728526256246e-05
3.751331546483239e-06
-1.345711735939592e-05
-3.382703378426332e-07
-1.06344783428467e-05
-2.744852060132963e-06
-7.200626751010697e-06
-3.355725788057754e-06
-4.079205309771976e-06
-3.042957240005264e-06
-1.602829378803561e-06
-2.397592933861783e-06
2.720597147881458e-07
-1.795787729153144e-06
1.527744202158486e-06
-1.176309546882016e-06
2.294608926628331e-06
-6.872423249891031e-07
2.679816328334457e-06
-3.053658499666599e-07
2.782039902003801e-06
-2.218918612477489e-08
2.671734477667714e-06
1.905049666703196e-07
2.406614389366308e-06
3.454589550963534e-07
2.030591814054075e-06
4.564760741388759e-07
1.57696137623568e-06
5.341747412878885e-07
1.071409387637158e-06
5.861639199514303e-07
5.356325305729372e-07
6.164336258178691e-07
6.163113862688617e-07
-1.100678324462361e-05
2.13595075880899e-05
-1.453886240551687e-05
7.36058262779053e-06
-1.355098496486581e-05
-1.248697842029591e-06
-1.02048839813021e-05
-6.013175831445638e-06
-6.464035818627284e-06
-7.018454449114088e-06
-3.160115242827937e-06
-6.268416035163186e-06
-5.696901708652031e-07
-4.909231940011895e-06
1.25610302045185e-06
-3.542481261321806e-06
2.458419078108837e-06
-2.299250144248909e-06
3.148808622815183e-06
-1.29800829953098e-06
3.448347332328292e-06
-5.25060563310196e-07
3.454124176664711e-06
5.206975427339568e-08
3.246026113137836e-06
4.78804071656567e-07
2.883206272800934e-06
7.886192844435027e-07
2.410310969159165e-06
1.009826590463944e-06
1.860892037680832e-06
1.164139754782796e-06
1.260365752268016e-06
1.267303938213296e-06
6.278541416057104e-07
1.329603787847754e-06
1.324845966439876e-06
-1.285866957741154e-05
3.429511378144255e-05
-1.627220293463042e-05
1.085124420797859e-05
-1.446158452068797e-05
-2.981895453285581e-06
-1.045557231903411e-05
-9.941427736953115e-06
-6.352396847629753e-06
-1.104352023892717e-05
-2.905470575044901e-06
-9.63688419604818e-06
-2.955705075676485e-07
-7.440343147474813e-06
1.518607325050783e-06
-5.27755880105624e-06
2.682295243116976e-06
-3.383560618510844e-06
3.332775004585829e-06
-1.868861957824389e-06
3.595631705477567e-06
-7.080706966118979e-07
3.570811875026398e-06
1.569281767258303e-07
3.33690570225899e-06
7.929140887913426e-07
2.952662545365655e-06
1.253205741492556e-06
2.461920066913369e-06
1.581027081232697e-06
1.897367875613267e-06
1.809240785427564e-06
1.283604127986534e-06
1.961684117444918e-06
6.394845003886992e-07
2.054384603165875e-06
2.045013546608468e-06
-1.587709426246902e-05
5.024905847539784e-05
-1.904468366996633e-05
1.409589595206852e-05
-1.584161679379464e-05
-6.107584470320906e-06
-1.080222991323291e-05
-1.490307785834902e-05
-6.188074387910908e-06
-1.557957932942231e-05
-2.538947265554547e-06
-1.320755795844687e-05
8.923772069502776e-08
-9.989735527643472e-06
1.861169984137867e-06
-6.97038830430337e-06
2.959324166308227e-06
-4.402333864984181e-06
3.546316638792775e-06
-2.376224298527936e-06
3.755751732625336e-06
-8.376550745455069e-07
3.689091997807629e-06
3.036307547844385e-07
3.422949853559554e-06
1.139264308773549e-06
3.014262835534203e-06
1.742240232176679e-06
2.505017180722342e-06
2.170734830367575e-06
1.926280547988653e-06
2.468530238256728e-06
1.301329826855471e-06
2.667255150271496e-06
6.48152652505502e-07
2.788226749521514e-06
2.773853026049749e-06
-2.00735536468045e-05
7.039934520086389e-05
-2.262394393708451e-05
1.672325618665621e-05
-1.752447285166461e-05
-1.112974075461715e-05
-1.111147397286311e-05
-2.123837180882957e-05
-5.874186597665352e-06
-2.073878613943985e-05
-2.038301682007871e-06
-1.696499636696479e-05
6.275671005574229e-07
-1.257680682678301e-05
2.325341243032157e-06
-8.589055878818561e-06
3.327421390390796e-06
-5.325028172684479e-06
3.826385430083618e-06
-2.795552726561399e-06
3.963785334341711e-06
-8.951985885609142e-07
3.84131116500569e-06
5.061534420539755e-07
3.532758521537499e-06
1.528030617268645e-06
3.092276614586368e-06
2.263075054616348e-06
2.559220961248641e-06
2.784257858041395e-06
1.962438704040028e-06
3.145870415872481e-06
1.323417469646948e-06
3.386901645169732e-06
6.587503049213319e-07
3.533563713509707e-06
3.513294934600843e-06
-2.504730573715911e-05
9.552303718442842e-05
-2.647858204935385e-05
1.823134933765631e-05
-1.893480298054593e-05
-1.859635666607e-05
-1.121567271715766e-05
-2.887985995062673e-05
-5.240373593658958e-06
-2.663602286412024e-05
-1.262551764594536e-06
-2.0864377375707e-05
1.342780523893833e-06
-1.510333823817096e-05
2.916524551641257e-06
-1.008368791395825e-05
3.787522352599682e-06
-6.116633470278464e-06
4.172394200720253e-06
-3.100781795533176e-06
4.219407282863905e-06
-8.623480453053714e-07
4.027353593862813e-06
7.782628732491807e-07
3.666499901838185e-06
1.969105015530176e-06
3.187047969314276e-06
2.822886727522351e-06
2.624937038843308e-06
3.426842744317565e-06
2.006214186822951e-06
3.84515754097591e-06
1.350130615583158e-06
4.123616642051116e-06
6.714879148185324e-07
4.292882251642709e-06
4.265480308168113e-06
-3.044728521093447e-05
0.0001260508680694416
-2.9841773175984e-05
1.770208645113846e-05
-1.946517659227213e-05
-2.889650284595887e-05
-1.040390106389465e-05
-3.786374218267211e-05
-4.203564990057092e-06
-3.275833169503049e-05
-1.743038114400107e-07
-2.481519996015301e-05
2.256115252694211e-06
-1.745495310173445e-05
3.639037453719018e-06
-1.1387490632178e-05
4.337242836017983e-06
-6.735437532195983e-06
4.581263058638687e-06
-3.265150296829891e-06
4.519138235387696e-06
-7.203506591958989e-07
4.244282146969331e-06
1.133183622458614e-06
3.821920952313331e-06
2.471695553890772e-06
3.29691914678091e-06
3.428256577817414e-06
2.700988879503014e-06
4.103254945752242e-06
2.056807754509499e-06
4.569910632252981e-06
1.380970171707696e-06
4.880093122227346e-06
6.86185242174537e-07
5.068350272921661e-06
5.032370292822046e-06
-3.790937260770339e-05
0.0001639638458913465
-3.183895777566324e-05
1.170850614019356e-05
-1.907534458023971e-05
-4.15895924062664e-05
-8.878263386582069e-06
-4.798489723951395e-05
-2.528284379236618e-06
-3.903044353771475e-05
1.359204430544933e-06
-2.862424808954152e-05
3.437098533277574e-06
-1.945404054164429e-05
4.512828867840839e-06
-1.238409419595953e-05
4.976811493308186e-06
-7.120009352939898e-06
5.046277114899453e-06
-3.25495379572594e-06
4.856885393182301e-06
-4.510754433842302e-07
4.487962902877731e-06
1.582181232081095e-06
3.995907492106876e-06
3.043990255533769e-06
3.419571608999498e-06
4.084969934189537e-06
2.785695129572888e-06
4.817622294891797e-06
2.113046863664407e-06
5.323139349790166e-06
1.415169360000255e-06
5.65861761476231e-06
7.023395390977189e-07
5.861871069757614e-06
5.815422451009348e-06
1.223517226067025e-05
-6.044200989140946e-05
2.460916456781433e-05
-6.095816586018169e-05
3.714646500406057e-05
-6.186122126240393e-05
4.997186153837138e-05
-6.320407167746286e-05
6.318483911581413e-05
-6.499126688562111e-05
7.688917904477029e-05
-6.723366845788101e-05
9.119746865577752e-05
-6.99365233939058e-05
0.0001062297836931465
-7.309559281301592e-05
0.0001221195044907417
-7.670421393100898e-05
0.0001390091051585016
-8.072564390660005e-05
0.0001570636995635294
-8.511237987018824e-05
0.0001764946692113531
-8.982125708013603e-05
0.000197562791928772
-9.478028343925773e-05
0.0002203292331322159
-9.915296936969805e-05
0.0002444516166308845
-0.0001008629200657723
0.0002694832277755599
-9.726923556216006e-05
0.0002957070981528969
-8.642237293801456e-05
0.0003248634572047754
-6.730961304753381e-05
0.0003576401109692467
-3.713378271519161e-05
0.0003646905093785495
4.969711936608735e-05
0.0002351660974012627
0.0003327733439176547
0.00017797755466139
0.0003969720200481438
0.0004761278843542207
0.000185619454707636
1.177161722594579e-05
-7.221362759469053e-05
2.367684844521983e-05
-7.286339757080261e-05
3.576916537427427e-05
-7.395353869333181e-05
4.814143121917959e-05
-7.557633803426941e-05
6.089635307084813e-05
-7.774618925666752e-05
7.414277841589112e-05
-8.048009432187655e-05
8.799962673762092e-05
-8.379337221620282e-05
0.0001025981936095606
-8.769416013494596e-05
0.0001180898003058925
-9.219582097039026e-05
0.0001346432068719218
-9.727905060544559e-05
0.0001524656956256859
-0.0001029348682046463
0.0001718379140976968
-0.0001091933710865926
0.0001930760302185834
-0.0001160180788297882
0.0002161531616814943
-0.0001222296459995176
0.0002405832667308128
-0.000125292626772839
0.0002660358605505125
-0.0001227216225713597
0.0002934931529254161
-0.0001138796900786521
0.0003264713365567641
-0.0001002393205448991
0.0003955369221638995
-0.0001051536659553672
0.0003097510649926524
0.0001320394879228836
0.000254204735042627
0.0003892346233410293
0.0001774876198750697
0.0004740361903252237
0.0004904633971665009
0.0001637501333245197
1.124537473908322e-05
-8.345900267859494e-05
2.260714782693132e-05
-8.422517100463806e-05
3.415207938800059e-05
-8.549847058596868e-05
4.596798567058127e-05
-8.739224461813467e-05
5.815549687472476e-05
-8.993370071062357e-05
7.082470788211786e-05
-9.314930549159717e-05
8.409775739500654e-05
-9.706642173904158e-05
9.811240757994897e-05
-0.0001017088100737628
0.0001130311472820011
-0.0001071145600054398
0.0001290366119623817
-0.0001132845138949506
0.0001463643940725795
-0.0001202626472762556
0.0001653300335694133
-0.0001281588355839109
0.0001861816589514232
-0.00013686922802613
0.0002086346988652986
-0.0001446821381826881
0.0002321872748110889
-0.0001488448772892665
0.0002569217356964334
-0.0001474560333027935
0.0002882021087100178
-0.0001451114954117833
0.0003253832645449152
-0.0001368685003870128
0.0002403444570842993
-2.809597684906388e-05
0.00022570791484531
0.0001451237704723818
0.0002439294538142711
0.000370354940968561
0.0002244188798945155
0.0004916898067100223
0.0005142085075791859
0.000178350129382409
1.062138154904075e-05
-9.408038395632628e-05
2.134954542157429e-05
-9.495333456449682e-05
3.224812500101772e-05
-9.639704976545904e-05
4.340149954512772e-05
-9.854561861940368e-05
5.490626335342391e-05
-0.0001014384637684854
6.686975337081681e-05
-0.0001051127944459621
7.941280402698218e-05
-0.0001096094708401023
9.267408985395112e-05
-0.0001149700935847177
0.0001068188976231117
-0.0001212593642978202
0.0001220321476368526
-0.0001284977585188089
0.000138565696127596
-0.0001367961862214212
0.0001567236386839196
-0.00014631649476725
0.0001765570499868899
-0.0001567019746046069
0.0001975600325107787
-0.0001656845602224767
0.000219648267144708
-0.0001709329724622953
0.000244944913698294
-0.0001727170647823464
0.0002822514072286152
-0.0001817107699591983
0.0002212514016474972
-8.271672092928522e-05
0.0001491998212373028
4.183250110391609e-05
0.0001249709072758439
0.0001675779115776339
0.0001767936086479915
0.0003165346392397892
0.0002207853596174127
0.0004448302038659567
0.000489480490317727
0.0002454022195244134
9.910794677550628e-06
-0.0001039911765525783
1.991865395374182e-05
-0.0001049611916164131
3.0078814873204e-05
-0.0001065572082036334
4.046967025524156e-05
-0.0001089364711248613
5.118095182602251e-05
-0.0001121497419191952
6.231337051705983e-05
-0.0001162452089223292
7.398170891233729e-05
-0.0001212778038084458
8.632012308839664e-05
-0.0001273085005352282
9.948859208794308e-05
-0.0001344278234562949
0.0001136673417123071
-0.0001426764940741675
0.0001291170170205648
-0.0001522458384108079
0.0001460757414532358
-0.0001632747759470608
0.0001643457133041119
-0.0001749710848117028
0.000183542963944593
-0.0001848813780232493
0.0002039419521551078
-0.0001913320068760913
0.0002359292078253211
-0.0002044690390740465
0.000190383598897787
-0.0001366539485796224
0.000119754617939972
-1.642809830017572e-05
6.370865948340592e-05
9.662881583977118e-05
5.145525890470157e-05
0.0001787090027689365
9.847755820135858e-05
0.00026768597452744
0.0001741554424215862
0.0003653149290276771
0.0004461245891065202
0.0002180191908752877
9.123293029302365e-06
-0.0001131144631583018
1.833162304956113e-05
-0.0001141695148666116
2.766917752878958e-05
-0.0001158947553231521
3.720532620163995e-05
-0.0001184726115653507
4.701956635801542e-05
-0.0001219639726973881
5.720210403215695e-05
-0.0001264277355495559
6.785711267778328e-05
-0.0001319327988966233
7.910938534706095e-05
-0.000138560756047628
9.110677688661212e-05
-0.0001464251928275113
0.0001040249624241088
-0.0001555946494024601
0.0001181208600504822
-0.000166341688604661
0.000133517313663984
-0.0001786705615074059
0.000149881839141567
-0.0001913345949395264
0.0001671747325396349
-0.0002021740863876336
0.0001871928542652787
-0.000211291508205365
0.0001956406353493686
-0.0002085767359938442
0.0001148108045625933
-5.964296810326293e-05
3.689897517386775e-05
6.014924718965186e-05
8.587960869137043e-07
0.0001319931779094795
1.426744879552912e-07
0.0001787976678356139
3.470358167167016e-05
0.0002319981871420696
0.000104468334883625
0.0002925377221739125
0.0003955145618495482
0.0001554549357111958
8.270753867631298e-06
-0.0001213852016614738
1.661165177752084e-05
-0.0001225103967248446
2.505395500604662e-05
-0.000124337041358379
3.365502842360326e-05
-0.0001270736661708409
4.248065781628372e-05
-0.0001307895812509587
5.160668945882819e-05
-0.0001355537433413516
6.112238074572057e-05
-0.0001414484618686142
7.113883102360176e-05
-0.0001485771718409345
8.178755492699179e-05
-0.0001570738740272081
9.324855284673557e-05
-0.0001670555912797096
0.0001057538126745669
-0.0001788468636569173
0.0001193515321889764
-0.0001922673139819188
0.0001338657825119653
-0.0002058477996116971
0.0001484662741062691
-0.0002167746716259766
0.0001695803647242214
-0.0002307898598436298
0.0001033559090720129
-0.0001554851890624726
3.072673223493229e-05
9.151272329753047e-06
-1.908873355812089e-05
0.0001095162217520179
-3.550303231615047e-05
0.0001479998900210532
-3.332464180922826e-05
0.00017618732945313
-1.030257050477099e-05
0.0002083351227768979
3.879139539835517e-05
0.0002419252550325761
0.0003389323646607722
9.469009123877232e-05
7.368099800906012e-06
-0.0001287532702033352
1.478853199976631e-05
-0.0001299307965094017
2.227839172989747e-05
-0.0001318268667738161
2.988031797855708e-05
-0.0001346755555701815
3.76430337388067e-05
-0.0001385522571431664
4.562409020102536e-05
-0.0001435347552868368
5.389334652365652e-05
-0.0001497176668712797
6.254317056081856e-05
-0.0001572269355714011
7.168632584562567e-05
-0.0001662169575559719
8.151445398425796e-05
-0.0001768836285771734
9.220081625383162e-05
-0.0001895330935727349
0.0001039480209137906
-0.0002040131792155944
0.0001171631442455068
-0.0002190620071100379
0.0001309895351139583
-0.0002305524001667854
0.0001417059915512171
-0.0002376966608098211
4.451721004619988e-05
-6.356194428285243e-05
-2.733698055225596e-05
8.054881545791369e-05
-4.813658764464163e-05
0.0001299307208202188
-5.338220723720896e-05
0.0001529958726823931
-4.933132079266831e-05
0.0001718850254047932
-3.397230985617009e-05
0.0001925970127887774
-3.868771986089166e-06
0.0002111489649248119
0.0002823632460468515
5.13591960750666e-05
6.43423410361019e-06
-0.0001351874490215832
1.290015052733309e-05
-0.0001363966560406824
1.940066911738792e-05
-0.0001383273257836452
2.59615790253261e-05
-0.0001412364027018619
3.261163371918787e-05
-0.0001452022454095671
3.938655242125423e-05
-0.0001503096012125627
4.633150072561588e-05
-0.0001566625336037002
5.351265575025872e-05
-0.0001644079980030343
6.101833683793954e-05
-0.0001737225327198049
6.903621569250643e-05
-0.0001849013776782639
7.76546690648186e-05
-0.0001981513649223717
8.753559340626947e-05
-0.000213892344499143
9.900901733065159e-05
-0.00023053479100094
0.0001121118604541019
-0.0002425883893291135
4.515570514975976e-05
-0.0001792584622377833
-2.899580233761553e-05
7.855346311140482e-06
-5.395020283110774e-05
0.0001048850399537837
-6.018210213843109e-05
0.0001359446977726619
-5.987171750552958e-05
0.0001525768716022607
-5.433000618111375e-05
0.0001662396804577983
-4.203635346626625e-05
0.0001801341802751069
-2.238342120584573e-05
0.0001911541241905148
0.0002340767987574473
2.486283382540852e-05
5.493562412794911e-06
-0.0001406809259059757
1.099541248806563e-05
-0.0001418984188548423
1.649670466786744e-05
-0.0001438285274725938
2.200560333480577e-05
-0.0001467452079481898
2.752939925201007e-05
-0.0001507259439081556
3.307910599856057e-05
-0.0001558592032648947
3.867088738519269e-05
-0.0001622542010197284
4.433640772540062e-05
-0.0001700733937141178
5.0128505667874e-05
-0.0001795144940988579
5.618165028097807e-05
-0.0001909543605596669
6.248639229782327e-05
-0.0002044558921068335
7.025209463462902e-05
-0.000221655862251421
7.930624250510636e-05
-0.0002395664025048211
8.905079551286979e-05
-0.0002488475016268138
1.495571484670991e-05
-0.0001096711334327325
-4.431630664415057e-05
6.758957503326683e-05
-5.937023917641339e-05
0.0001194993172888366
-6.190976636377229e-05
0.0001384236717556077
-5.9382329433517e-05
0.0001500470331002271
-5.293726136805668e-05
0.0001598021001008571
-4.182382052420893e-05
0.0001690036644120317
-2.625614983206323e-05
0.0001754950183416822
0.0001973797161360838
9.974710040583866e-06
4.577899131848266e-06
-0.0001452587113431594
9.138026518368056e-06
-0.0001464584316148056
1.366576539461963e-05
-0.0001483561485248081
1.815237192223009e-05
-0.0001512316953039184
2.258501984066741e-05
-0.0001551584682743513
2.69508760098275e-05
-0.0001602249279910349
3.123525746304571e-05
-0.0001665384438075286
3.543323920915589e-05
-0.000174271230499416
3.956023895888085e-05
-0.0001836413445896732
4.367880323490898e-05
-0.0001950727511103945
4.776537131297352e-05
-0.0002085422389336531
5.322971238229407e-05
-0.0002271179230223858
5.933901806903612e-05
-0.0002455162629014575
6.150437170026886e-05
-0.0002509182590943578
-1.936121863068576e-05
-3.178193386378463e-05
-5.329447953963926e-05
0.0001012023569065593
-5.934477711987811e-05
0.0001253492338934788
-5.936145440275189e-05
0.0001384717629094664
-5.587171996284129e-05
0.0001466257902130452
-4.919319694359654e-05
0.0001532030495964108
-3.891718182637391e-05
0.0001588023085467219
-2.543335289415336e-05
0.0001620632722705927
0.0001711143426616357
7.534523972274225e-07
3.728136609166856e-06
-0.0001489867228456737
7.410108876860912e-06
-0.0001501402796844547
1.103532094999527e-05
-0.0001519812330060854
1.458206387676402e-05
-0.0001547783092592239
1.802210032486696e-05
-0.0001585983641978558
2.13260023621738e-05
-0.0001635286844879163
2.445526934683816e-05
-0.000169667567565536
2.738432836107192e-05
-0.0001772001568317101
3.011635439956343e-05
-0.0001863732504121497
3.270760136360179e-05
-0.0001976638245772744
3.536604363483868e-05
-0.0002112037368655683
3.961557570815975e-05
-0.0002313772498601352
4.539038163327205e-05
-0.0002503869001940961
-7.805331125213888e-07
-0.0002066053614072837
-6.010139930532e-05
2.662336882345991e-05
-5.854230017226901e-05
9.978312469288371e-05
-5.747575483295903e-05
0.0001242170249332428
-5.586624057694473e-05
0.0001369502699346368
-5.210194261658874e-05
0.0001429724399138917
-4.577065119955627e-05
0.0001469912760662007
-3.655799965823e-05
0.0001497105164348042
-2.486437085695922e-05
0.0001504862541046832
0.0001526067604059574
-6.272831238156224e-06
3.002365932668575e-06
-0.0001519889804900028
5.925554920816616e-06
-0.0001530633580294142
8.782073781693759e-06
-0.0001548376295683071
1.154632728266033e-05
-0.000157542411160491
1.418823054747924e-05
-0.0001612400707212556
1.667919724961665e-05
-0.0001660221376592615
1.899470260996963e-05
-0.000172001101531686
2.115411121307486e-05
-0.0001793711315617474
2.322321380804144e-05
-0.0001883778600431277
2.523752358623125e-05
-0.0001994268569891126
2.752510877450544e-05
-0.0002128203581102739
3.529814630059332e-05
-0.0002418232182015718
4.66903975126678e-05
-0.0002623732961959174
8.833742097941542e-07
-0.000169223227870133
-3.043528000735136e-05
5.760472543504911e-05
-4.601282269942461e-05
0.0001154858600658069
-5.142197271586889e-05
0.0001296881945710499
-5.192761211713859e-05
0.000137577801391357
-4.921991519658617e-05
0.000140398739102492
-4.382076627079498e-05
0.0001417312197423969
-3.589255766575171e-05
0.0001419232412807029
-2.594864429752361e-05
0.0001406833201323239
0.0001392565534447006
-1.246350987884307e-05
2.496966979297576e-06
-0.000154335836743164
4.87373266405179e-06
-0.0001552727333438946
7.211369714815677e-06
-0.0001569762115065074
9.450844188912181e-06
-0.000159534888614382
1.162962050720827e-05
-0.0001629679845760432
1.373793837045318e-05
-0.0001683412364201463
1.581032057987191e-05
-0.000175573047172653
1.799977986615822e-05
-0.0001843206819606771
2.082869507382872e-05
-0.0001957483972051129
2.740689014321673e-05
-0.0002126873182605023
3.090012277093793e-05
-0.0002212507078153178
2.91180553966469e-05
-0.0002356277003029889
4.16867461380547e-06
-0.0002365509266717059
1.313268716380628e-06
-0.0001629052414172549
-8.961038831408027e-06
6.54255897853138e-05
-3.385870260278577e-05
0.0001403659335459551
-4.56669567573659e-05
0.0001416173751348246
-4.917994736123689e-05
0.0001412298956647498
-4.80767411308323e-05
0.000139440759439831
-4.378449309052662e-05
0.0001375867350985392
-3.707405181761241e-05
0.0001353616259773983
-2.864595695937638e-05
0.0001324044757567762
0.0001291000419884272
-1.83409510869865e-05
2.407772668653356e-06
-0.0001615141276365341