/*--------------------------------*- C++ -*----------------------------------*\
| =========                 |                                                 |
| \\      /  F ield         | OpenFOAM: The Open Source CFD Toolbox           |
|  \\    /   O peration     | Version:  2206                                  |
|   \\  /    A nd           | Website:  www.openfoam.com                      |
|    \\/     M anipulation  |                                                 |
\*---------------------------------------------------------------------------*/
FoamFile
{
    version     2.0;
    format      ascii;
    arch        "LSB;label=32;scalar=64";
    class       volScalarField;
    location    "0.15";
    object      rho;
}
// * * * * * * * * * * * * * * * * * * * * * * * * * * * * * * * * * * * * * //

dimensions      [1 -3 0 0 0 0 0];

internalField   nonuniform List<scalar> 
2268
(
1001.360166880444
1001.360167063421
1001.36016726269
1001.36016750141
1001.360167786287
1001.360168121829
1001.360168515278
1001.360168975706
1001.360169513547
1001.360170138259
1001.36017086207
1001.360171671296
1001.360135126603
1001.35996269425
1001.359520700742
1001.358690850517
1001.357397606345
1001.355591564786
1001.353156575969
1001.34985078081
1001.345272276592
1001.338591912411
986.1578124633362
1001.360169269183
1001.360169482681
1001.360169728765
1001.360170037206
1001.360170415746
1001.360170870987
1001.360171413166
1001.360172054865
1001.360172811076
1001.360173696003
1001.360174727799
1001.360175884268
1001.360121614809
1001.359866132282
1001.359222780149
1001.358058790149
1001.356353717216
1001.354182756428
1001.351572171969
1001.348348369067
1001.344159104145
1001.338063489878
984.4100585680158
1001.360171711345
1001.360171951428
1001.360172241202
1001.360172614242
1001.360173078934
1001.360173643877
1001.360174321868
1001.360175128125
1001.360176080866
1001.360177196878
1001.360178497128
1001.360179941571
1001.360098450358
1001.359719425274
1001.358783315463
1001.357137631358
1001.354825761336
1001.352057869658
1001.349042401006
1001.345745837633
1001.341959997766
1001.336818897118
984.3466028344801
1001.360174291773
1001.360174557141
1001.360174891284
1001.360175329485
1001.360175880442
1001.360176554254
1001.360177365329
1001.360178330123
1001.360179468249
1001.360180796702
1001.360182336627
1001.360184018329
1001.360064545447
1001.359520667811
1001.358210512105
1001.355971321605
1001.352925015328
1001.349432100504
1001.345922659935
1001.342507519002
1001.339132485421
1001.335033628848
995.1872903656146
1001.360177088186
1001.360177376378
1001.360177752391
1001.360178251066
1001.360178881152
1001.360179653489
1001.360180582905
1001.360181685659
1001.360182981203
1001.360184484988
1001.360186216822
1001.360188062097
1001.360016279056
1001.359257070502
1001.357486341884
1001.354554287856
1001.350672592522
1001.346335211269
1001.342203812274
1001.338588452658
1001.33565910305
1001.332732789273
1001.325957684245
1001.36018005135
1001.360180358359
1001.360180768631
1001.360181315407
1001.360182007556
1001.360182856127
1001.360183875608
1001.360185081245
1001.3601864915
1001.360188118995
1001.3601899802
1001.360191889967
1001.359947953151
1001.358907934193
1001.356576945287
1001.35286422001
1001.348095491634
1001.342847692744
1001.337950735236
1001.334086049891
1001.331635647113
1001.330039603778
1001.325025451369
1001.360182989236
1001.360183309762
1001.360183743345
1001.360184322094
1001.36018505527
1001.360185953744
1001.36018703097
1001.360188300124
1001.360189776925
1001.360191467438
1001.360193376641
1001.360195195355
1001.359850703804
1001.358440963591
1001.355425649871
1001.350847120852
1001.34520417117
1001.339120217018
1001.33332014346
1001.329120389642
1001.327250093561
1001.327210115832
1001.323856792212
1001.360185723916
1001.360186049141
1001.360186492094
1001.360187084206
1001.360187834912
1001.360188753647
1001.360189850238
1001.360191131745
1001.360192604595
1001.360194256439
1001.360196055234
1001.360197449634
1001.359711644143
1001.357812349026
1001.353960657163
1001.348429844313
1001.341981401299
1001.335354105763
1001.32899474328
998.856521350098
1001.324103896154
1001.325228091389
1001.322607552979
0.9800298658108094
0.9800303878975154
0.9800310645935031
0.9800319174829664
0.9800327286026326
0.9800334074040258
0.9800339268232663
0.9800342709185857
0.9800345344114951
0.9800347206027402
0.980034860748084
0.9800349652088998
0.9800350408536387
0.9800350909949848
0.980035126327196
0.9800351557966697
0.9800351870776249
0.9800352025339767
0.9800351197088564
0.9800293947675052
0.9800298663168291
0.9800305682279299
0.9800314572383192
0.9800323004199636
0.9800329995277269
0.9800335302258302
0.9800338956116186
0.9800341621294181
0.9800343496212408
0.9800344886333985
0.9800345914164754
0.9800346650126094
0.9800347142831916
0.9800347507858174
0.9800347832895406
0.9800348180237212
0.9800348291795171
0.9800346942208595
0.9800287027552818
0.9800291720429869
0.9800299559484857
0.9800309165654146
0.9800318137855411
0.9800325496294459
0.9800331025814184
0.9800334917851633
0.9800337671162268
0.9800339585164668
0.9800340977233192
0.9800341987091727
0.9800342702673116
0.9800343185303697
0.9800343552666967
0.9800343892389332
0.980034425099622
0.9800344325794387
0.9800342933189718
0.9800278349692035
0.9800283905795885
0.9800293219050564
0.9800303701442349
0.9800313347069011
0.980032116497246
0.9800326958002282
0.9800331097890952
0.9800333941935976
0.980033587874688
0.980033725390737
0.9800338230441443
0.9800338913298
0.9800339374885332
0.9800339733775122
0.9800340075136766
0.98003404374842
0.9800340481323617
0.9800339079697022
0.9800267850349303
0.9800277105642289
0.9800288810596122
0.9800298744112921
0.9800308782474764
0.9800317064115783
0.980032308843901
0.9800327457651749
0.9800330368657044
0.9800332307040107
0.9800333649432768
0.9800334582081451
0.9800335225016603
0.9800335662791805
0.9800336009089645
0.9800336345725167
0.9800336705442477
0.9800336728504045
0.9800335296591565
0.9800255932268682
0.9800284388664819
0.9800302956150643
0.980029741950441
0.98003049574461
0.9800313377614953
0.9800319709648513
0.9800324235896501
0.9800327172786479
0.9800329077949003
0.9800330361097038
0.980033122936805
0.9800331818307091
0.9800332221539074
0.9800332549867385
0.9800332881716727
0.980033324293012
0.9800333245531114
0.9800331717316229
0.980029443550149
0.9800397935638607
0.9800442976274779
0.9800316911700258
0.9800303706045572
0.9800309970589631
0.9800316424293034
0.9800321068322967
0.9800324060822583
0.9800325959304715
0.9800327200356628
0.9800328011962874
0.9800328555452488
0.9800328931445396
0.9800329246286373
0.9800329575882264
0.9800329933636971
0.9800329895730023
0.9800328513766211
0.9799434644931374
0.9801496361722771
0.9801232949260887
0.9800437645843227
0.9800314653327331
0.9800307944988325
0.9800313007481867
0.9800317313442031
0.9800320206160348
0.9800322064332201
0.980032327756694
0.9800324073192704
0.9800324603715562
0.9800324976851125
0.9800325287009848
0.9800325600794595
0.9800325913155448
0.980032590608197
0.9800324710925051
1001.360185970237
1001.360186288226
1001.360186722117
1001.360187299273
1001.360188027116
1001.360188909187
1001.360189942058
1001.360191112501
1001.360192396419
1001.360193727608
1001.360194962658
1001.360195035768
1001.359509741237
1001.356963617405
1001.352102716728
1001.345544661919
1001.33837388028
1001.331569715411
976.4062485458179
657.0740745549884
218.0584058937329
535.3203945692778
1001.319164812604
1001.360189105163
1001.360189404293
1001.360189794858
1001.360190298051
1001.360190907807
1001.360191605593
1001.360192329482
1001.360192981935
1001.360193414728
1001.360193350186
1001.360192164518
1001.360186803814
1001.358972641962
1001.354842130234
1001.347779000616
1001.339307454127
1001.331133475028
874.8825663819296
271.4045439438021
1.8740208427698
1.225307005333334
1.246859392555468
701.2805360395163
1001.3601897724
1001.360189913476
1001.36019003379
1001.360190110645
1001.360190100748
1001.360189919075
1001.360189297515
1001.360187879512
1001.360185157671
1001.360180275435
1001.360171146483
1001.360149238169
1001.358053317274
1001.351614911919
1001.341983197534
1001.332055049972
846.5097137269082
186.5673662783392
1.241442551909657
1.186742071239416
1.176717974633943
1.194946039855684
24.71883486324547
1001.360183273698
1001.36018288596
1001.360182116069
1001.360180800173
1001.360178821616
1001.360175929787
1001.360171219487
1001.360163668562
1001.360151925816
1001.36013382522
1001.360103402702
1001.360038389631
1001.356495406909
1001.34686616456
1001.334666155889
927.1836386951977
239.6212102104776
1.240894538810993
1.153990037846736
1.115518498805631
1.118613416654641
1.139397743511885
1.186233214745825
1001.360156308793
1001.360154431975
1001.360151182285
1001.360146029753
1001.36013879488
1001.360128862375
1001.360113554105
1001.360090416496
1001.360056496734
1001.360007177137
1001.359927256454
1001.359763491554
1001.353883262921
1001.340168985568
1001.326069175685
433.383833719185
1.246386258608866
1.15134302796447
1.083390604378303
1.062252240077719
1.069093257246362
1.08799881349218
1.139347348224611
1001.360076531038
1001.360071004151
1001.360061727711
1001.360047367818
1001.36002798757
1001.360002196707
1001.359962834209
1001.359904958876
1001.359823297181
1001.359709517043
1001.35952823015
1001.359163544534
1001.349563103324
1001.331219754896
747.2887901123497
63.26167383838405
1.160857256760923
1.07210202877889
1.035223320519333
1.027776548644019
1.033248944982993
1.046204979765838
1.096513970014104
1001.359874494183
1001.359861073918
1001.359838853304
1001.359805017662
1001.359761155979
1001.359704084891
1001.359616341812
1001.359489899786
1001.359317429661
1001.359086423449
1001.358720486324
1001.357990359014
1001.342541825518
1001.32005366775
289.2815311632052
1.223730358494367
1.097458950072418
1.026189617823178
1.009796562589454
1.006848814291412
1.009530136695783
1.016128168618778
1.055520319631632
1001.359418536361
1001.359390002211
1001.35934308581
1001.359272848866
1001.359186043762
1001.359074816196
1001.3589003725
1001.358653655689
1001.358328012639
1001.357909007702
1001.357242374384
1001.355917336933
1001.331371581964
683.3237845276317
42.47578675404692
1.138212249933509
1.032076506421918
1.003437088796296
0.9960009135552147
0.9941596857825565
0.9949998134530561
0.9978442197751453
1.020475099144681
1001.358489636977
1001.358435559094
1001.358346717264
1001.358216643199
1001.358064986279
1001.357871613053
1001.357558560402
1001.357124621555
1001.356569774318
1001.355886373751
1001.354781669638
1001.352598257292
1001.314167061562
299.8969050514016
1.224546396543886
1.061765672321842
1.003623006346798
0.992177448666403
0.9881913467256207
0.9869017279071928
0.986902957241152
0.9878916306942915
0.9974001843419131
1001.356773636166
1001.356682016655
1001.35652985406
1001.356314672319
1001.356080223408
1001.355778068104
1001.355267803722
1001.354576782324
1001.353718418938
1001.352714263709
1001.351039894201
1001.347793146487
892.9200670125306
103.3215518408022
1.143163805962049
1.024186902103193
0.9918038769253779
0.9861452252771798
0.983931776059789
0.9830941632470184
0.9828725328554939
0.9830665628655126
0.9860914400088875
1001.353897599309
1001.353760236386
1001.353522953266
1001.353207263913
1001.352884052028
1001.352455547531
1001.351696669845
1001.350698025021
1001.349488406169
1001.34816001657
1001.34581752971
1001.341543069844
628.8170364646817
25.22460503271785
1.086261446254582
1.001688251951642
0.9859578505924721
0.9829612648679561
0.9817655555808362
0.9812820934276236
0.9810911904009997
0.9810637733792413
0.9817984417141883
1001.349536285669
1001.34935995377
1001.349019290789
1001.34861278641
1001.34819567985
1001.347633545894
1001.346600462122
1001.345298907743
1001.343761869565
1001.342156881759
999.8969795857743
942.4850583826698
283.142249048291
1.265917664570377
0.9924933661738123
0.9912390375208555
0.9828694238840076
0.9813516348487051
0.9807470472058144
0.980499863607735
0.9803894170111096
0.9803441729353883
0.98047594007779
1001.343592644449
1001.343409232009
1001.342940327193
1001.342450422432
1001.34184395466
999.9976131621979
987.4633814695649
951.2035040755338
876.8130516214655
743.5771582623775
499.9693159678351
233.1335564509784
24.07773358473673
1.156767911678883
0.986084459183651
0.9854093766010463
0.9813337324024017
0.9805889649572782
0.9803050539239824
0.9801918983831587
0.9801404272846227
0.9801155051786343
0.980129512062243
785.5058262757049
769.2376615374196
739.362446369837
691.8778450427682
611.4899059110702
499.2882510769214
373.7870876883093
245.7931728916558
128.8915338458031
31.39953318208138
1.24356877540984
1.220780666628807
1.222204098157716
7.755454836063782
1.05140221683209
0.9824976821313594
0.9806262483671061
0.9802536334409602
0.9801274653662286
0.9800801913958598
0.9800595801888159
0.9800496101235544
0.980048649510577
55.44562846795667
46.2181910066593
30.93893731626404
11.09675867161986
1.247148428866363
1.233170748949456
1.223990688891545
1.211133310299478
1.192087345410035
1.168597809623139
1.15104595405002
1.139260367791479
1.227926669691763
17.37023113676468
1.374902700194582
0.9827799182820882
0.9802839609882862
0.980114318294088
0.9800603702667554
0.9800421352841899
0.9800348689689029
0.9800316440180258
0.9800307043910145
1.174385269875193
1.17087977967949
1.168429230134738
1.161511221850081
1.152835953368452
1.140599483911004
1.126403174251883
1.110696410244315
1.09413525560938
1.078376335511465
1.070993238595736
1.075810467478977
1.787877419168614
17.48918935508268
1.325250016450489
0.9828872144056011
0.9801042861135778
0.9800577155327768
0.9800358707992581
0.9800294765009663
0.9800272827689338
0.9800264848000414
0.9800262687114979
1.080696538775187
1.079240421103175
1.076499615002208
1.073132420205871
1.064350609611678
1.054961179834138
1.045376336597302
1.035329219887194
1.025075214287425
1.018560967529285
1.021904912969689
1.040845304482072
2.481011257183185
14.26064192755709
1.038185788283603
0.9825417193459391
0.9799813154125797
0.9800353185371281
0.9800268919220964
0.9800250013390792
0.9800245519436334
0.9800245023945937
0.9800245613955474
1.017186663986061
1.015821879060414
1.014026924281153
1.011937686437817
1.007499729806773
1.002080442287362
0.997078751151231
0.9928102152914736
0.9898587237404249
0.9917021605279955
1.004104415753533
1.116180168837895
2.240061569960441
1.157580775315124
1.028090192132174
0.9813585039228369
0.9798890839742681
0.9800281722072997
0.9800233919812419
0.980023026073807
0.980023124001867
0.9800232741237592
0.9800233955459853
0.9838275067687918
0.9833260758208573
0.9827719461666412
0.9820232867758939
0.9810634419875943
0.9796101985713315
0.9786339646734775
0.9786064619430839
0.9811432853231056
0.9886032360182465
1.015385015244563
1.147548657411773
1.119022759312863
1.073527605687149
1.013502001431067
0.9797033326541184
0.979848759366392
0.9800314243172865
0.9800215035953478
0.9800217920983044
0.9800220380318955
0.98002222614608
0.9800223381150065
0.9757391133246053
0.9758368532518196
0.9759395214026059
0.976117153946925
0.9763702729844644
0.9768726235723867
0.9776806172680689
0.9792851651217624
0.9829094247251698
0.9912687402076474
1.01710286670916
1.125288273528391
1.114765760282543
1.031590523933128
1.001097220409518
0.9780371008203661
0.9799565746975876
0.9800358866679961
0.9800195447108476
0.9800208260453113
0.9800210452161408
0.9800212215982467
0.9800212951269832
0.9789190356713464
0.9790329629276727
0.979137597536674
0.979312850403008
0.979593931126338
0.9799176981021895
0.980339652936413
0.9811840990854447
0.9832445024913842
0.9879348890753528
1.001257245076442
1.141194392038077
1.180684207415733
1.127992081135544
0.9916298663735272
0.9769870083674729
0.980237732966032
0.9800176455387919
0.9800187401345039
0.9800199429812826
0.9800200805007274
0.9800202246315916
0.9800202486984742
0.9808974122287497
0.9808624271703791
0.9808292831908488
0.9807683775405626
0.9806755532232659
0.9805822768863912
0.9805128529240711
0.9805473990314184
0.9809357900075502
0.9820995022561092
0.9844821462420235
0.9922649582085237
1.035266868619768
1.038258616661137
0.9844755206043909
0.9774639698331066
0.9804170994184617
0.9799872668291053
0.9800198038596427
0.9800190062228944
0.9800191237875912
0.9800192228423547
0.9800192003894453
0.9798245869277042
0.9798268863563182
0.9798297733277228
0.9798361980945035
0.9798436595039111
0.9798437770801777
0.9798405221614167
0.9798574939275737
0.9799472131281445
0.9801922071488067
0.9806566112396918
0.9813061609312892
0.981883050599051
0.9822264517393279
0.9817471978364954
0.9787245567086648
0.9803479721411309
0.9799781562544683
0.9800202527906806
0.980018064794504
0.9800181660512151
0.9800182172098875
0.9800181637260083
0.9800427980182185
0.9800430017546828
0.9800428788374385
0.9800427853617587
0.9800438221799898
0.9800479309918164
0.9800543459784651
0.9800577817302172
0.9800509885559698
0.9800378672353769
0.9800421746180851
0.980078187332776
0.9801083251796443
0.9800530049379805
0.9798836315463287
0.9796074046857702
0.9801783504754885
0.9799923608947738
0.980018755455946
0.9800171801580072
0.9800172031391877
0.9800172115599383
0.9800171478657522
0.9800202613382832
0.9800200375569768
0.9800198272551339
0.9800196489710887
0.9800193261342819
0.9800184475008801
0.9800168236983458
0.9800148875228151
0.9800135180707856
0.9800124226719321
0.9800094847079955
0.9800031326066548
0.979991353278457
0.9799688415581264
0.9799388795599391
0.9799360605247714
0.9800645865623889
0.9800075961675196
0.9800168134239082
0.9800162913542424
0.9800162420327051
0.9800162176730395
0.9800161627699332
0.9800196740742155
0.9800195161783165
0.9800193074525682
0.980019140109966
0.9800190763550577
0.9800191426776967
0.9800192947912059
0.9800193904392676
0.9800192028621876
0.9800185653646245
0.9800174461852258
0.9800157414447633
0.9800131560876513
0.9800093896017944
0.9800052658190964
0.9800066159169035
0.9800243518290866
0.9800137106635757
0.9800154772360936
0.9800153662465154
0.9800152872836503
0.9800152420693247
0.9800152076618069
0.9800189876871814
0.9800188346719269
0.9800186271793946
0.9800184371568831
0.9800183015048839
0.9800182178471351
0.9800181463823828
0.9800180323794274
0.9800178366672426
0.9800175447267434
0.980017155349061
0.9800166739378264
0.9800161071344272
0.9800154651000444
0.980014831098771
0.9800145452155576
0.98001578679124
0.980014454179379
0.9800145279107483
0.9800144421031233
0.9800143529551167
0.9800142991103028
0.9800142880000563
0.9800180177142582
0.9800178769624017
0.9800176800183751
0.9800174832933751
0.9800173219601275
0.9800172074340829
0.9800171211890176
0.980017021927873
0.9800168647191941
0.9800166215962763
0.9800162920185183
0.9800158985316197
0.9800154734901373
0.9800150469490893
0.980014644602813
0.9800142997461214
0.9800140971641287
0.980013812837889
0.9800136628455537
0.9800135447808693
0.9800134479892726
0.9800133914933822
0.9800133996776438
0.98001706520895
0.980016943156532
0.9800167667573726
0.9800165775359291
0.9800164041363815
0.9800162623419206
0.9800161468392243
0.9800160321682775
0.9800158842204149
0.9800156755375572
0.9800153958781143
0.9800150538185094
0.9800146709224972
0.9800142733498906
0.9800138856593735
0.9800135298757952
0.9800132327583668
0.9800130007568626
0.980012824821932
0.9800126909045724
0.9800125891123849
0.9800125315443189
0.9800125496291697
0.9800160945205776
0.980015994186426
0.9800158445353692
0.9800156737174002
0.9800155029219324
0.9800153485376419
0.9800152135362848
0.9800150845441727
0.980014937589458
0.980014748815666
0.9800145040618462
0.9800142031001682
0.9800138580532333
0.9800134885332425
0.9800131164543586
0.9800127631506035
0.9800124495254954
0.9800122085332339
0.9800120215780863
0.9800118789363509
0.9800117716763276
0.9800117101604197
0.9800117286668065
0.9800151143572431
0.9800150364583877
0.9800149159991148
0.9800147701483788
0.9800146129572933
0.9800144591588983
0.9800143160972535
0.9800141789366857
0.980014032447471
0.9800138577974881
0.9800136402327974
0.980013374122333
0.9800130641978159
0.9800127236813798
0.9800123709636333
0.98001202646414
0.9800117109737729
0.9800114589335911
0.980011260799013
0.9800111099515881
0.9800109967957983
0.9800109291904616
0.9800109391870243
0.9800141293574808
0.9800140724592754
0.9800139800193347
0.9800138609888471
0.9800137234568201
0.980013579511681
0.9800134382850813
0.9800133004959611
0.9800131577867495
0.9800129964654249
0.9800128030251912
0.9800125690331501
0.9800122938135741
0.9800119845973556
0.9800116547970465
0.9800113219278019
0.9800110066007274
0.9800107396892149
0.9800105274240123
0.9800103643429658
0.9800102417879765
0.9800101652967524
0.9800101628721002
0.9800131438018838
0.9800131048176334
0.9800130363572149
0.9800129418743388
0.9800128251100821
0.9800126955007563
0.9800125624055174
0.9800124297530262
0.9800122941224176
0.980012146271166
0.9800119747547088
0.9800117700295056
0.9800115276029359
0.980011249709507
0.9800109452530288
0.9800106285774558
0.9800103178661969
0.9800100334996291
0.9800098080835442
0.9800096320775061
0.980009500015809
0.9800094149388093
0.9800093982598697
0.9800121616587641
0.9800121364531514
0.9800120860197129
0.9800120107332636
0.9800119116979307
0.9800117962370245
0.9800116732190878
0.9800115482757725
0.9800114213120191
0.9800112865938996
0.9800111348054454
0.9800109561303513
0.9800107432859897
0.9800104940371986
0.9800102128174019
0.980009911177241
0.9800096061224334
0.9800093180544942
0.9800090795404041
0.9800088901666757
0.9800087477022739
0.9800086542835884
0.9800086258385082
0.9800111859431303
0.9800111699671636
0.980011130886415
0.9800110679916599
0.9800109812242112
0.9800108765675538
0.9800107622454848
0.980010644676481
0.9800105258836292
0.9800104027866812
0.9800102680660309
0.9800101121476386
0.9800099258784943
0.9800097035338303
0.9800094458473668
0.9800091614251558
0.9800088658482472
0.9800085793513023
0.9800083324695135
0.9800081336805384
0.9800079839375263
0.9800078847844672
0.9800078470400282
0.9800102193046816
0.9800102079691581
0.9800101737314761
0.9800101161184473
0.9800100352069051
0.9800099363473219
0.9800098272803774
0.9800097147603551
0.9800096022015701
0.9800094885123647
0.9800093680391265
0.9800092316663155
0.9800090689877694
0.9800088717077505
0.9800086373109138
0.9800083713956284
0.9800080877623334
0.9800078063420979
0.9800075555895897
0.9800073507057029
0.9800071952530837
0.9800070918497347
0.980007048911826
0.9800092625956177
0.9800092519661299
0.9800092171462007
0.9800091589924146
0.980009078281442
0.9800089804217543
0.9800088728983357
0.9800087626347017
0.9800086539777526
0.9800085473031435
0.9800084382974318
0.9800083182880119
0.980008176146284
0.9800080016702345
0.9800077895781795
0.9800075427730041
0.9800072736091584
0.9800070017978574
0.980006752932865
0.9800065474998439
0.9800063904461354
0.98000628530237
0.9800062393762743
0.9800083165360239
0.9800083030559464
0.9800082637036545
0.9800082007070514
0.9800081161635444
0.980008015797159
0.9800079069913163
0.980007796836937
0.9800076903436956
0.9800075889437826
0.9800074892316158
0.9800073829376476
0.9800072585133474
0.9800071042523245
0.9800069126064181
0.9800066843965825
0.9800064306920461
0.9800061707543659
0.9800059274580627
0.980005724834855
0.9800055686185895
0.9800054634825406
0.9800054171454573
0.9800073791367186
0.9800073606073869
0.9800073147122522
0.9800072452755647
0.98000715538981
0.980007051289462
0.9800069404029706
0.9800068298942972
0.9800067252591512
0.9800066284765769
0.9800065367541142
0.9800064421026332
0.9800063325330606
0.980006195220698
0.9800060210276826
0.9800058093738848
0.9800055705248184
0.9800053235885012
0.9800050908184148
0.9800048954708599
0.9800047442575739
0.9800046415330145
0.9800045950515958
0.9800064482482813
0.9800064233918522
0.9800063712363217
0.9800062961882096
0.9800062022539868
0.9800060958480453
0.9800059844159532
0.9800058752328844
0.9800057738749012
0.9800056825916851
0.9800055987513621
0.9800055142012452
0.9800054163827943
0.9800052915271964
0.9800051297247053
0.9800049300254817
0.9800047029111577
0.9800044681796778
0.9800042483363216
0.9800040645939165
0.9800039234397899
0.9800038273069134
0.9800037819647883
0.9800055191198305
0.9800054899986453
0.9800054353683546
0.9800053597063754
0.9800052669929907
0.9800051634839235
0.9800050561676643
0.9800049519196887
0.9800048559938704
0.9800047704392164
0.9800046923644069
0.9800046133632645
0.9800045207268786
0.9800044009136151
0.9800042448255943
0.9800040528081277
0.9800038367565679
0.9800036173204083
0.9800034165654846
0.980003252504992
0.9800031286805718
0.9800030423897769
0.980002992778046
0.9800045936100611
0.980004564053252
0.9800045179272209
0.9800044551879026
0.9800043791025167
0.9800042936164619
0.980004202967579
0.9800041110453044
0.9800040205008153
0.980003931691763
0.9800038420484299
0.9800037462197364
0.980003637359053
0.9800035096658585
0.9800033612668219
0.9800031961121958
0.9800030236090542
0.9800028553745141
0.9800027002955108
0.9800025640550353
0.9800024442197395
0.9800023369880215
0.9800022429500396
566.8331919463586
0.9811743820019725
0.9743629197012202
0.9819405558297412
478.6717557868365
50.75437651566882
1.1171640049248
1.041849948008179
46.57522118513521
21.85690356012335
2.865079538449217
1.127123760578287
1.201650446374791
1.200310947853296
1.492754927676835
1.175481125922287
1.154530279039911
1.152794408798618
1.131517350075413
1.099900217468491
1.106253668159481
1.100943772680691
1.082087244316999
1.056802880435077
1.058707177659383
1.051605765693367
1.037190756830086
1.020572937245841
1.020249429982323
1.014595262888833
1.005973423809851
0.9972768138662109
0.9966079665973553
0.9934884702322404
0.9895363171760252
0.9859710228876847
0.9855825348956864
0.9843021945462216
0.9828853613517152
0.9817190789868153
0.9815805969968284
0.9811642186615355
0.9807514284624974
0.9804368561243963
0.9804034653508772
0.9802891774069297
0.9801874177524609
0.9801149915337811
0.9801087671627531
0.9800818785081548
0.9800595187850053
0.9800447750870465
0.9800432998504686
0.9800375969631134
0.9800331650817029
0.980030362350489
0.9800293995594747
0.9800282270254037
0.9800273271580562
0.9800267726451715
0.9800259155124478
0.9800255905176466
0.9800253114996393
0.9800251608611172
0.9800243974785061
0.9800241920804693
0.9800240131403969
0.9800239412805113
0.9800232403493107
0.980023039759383
0.9800228866021732
0.9800228353743679
0.980022152307657
0.9800219578635031
0.9800218258682984
0.9800217830505267
0.9800210797492597
0.9800209097851755
0.9800208029109326
0.980020767398581
0.9800200238207789
0.9800198908990551
0.9800198097337791
0.9800197827989507
0.9800189932701965
0.9800189022957865
0.9800188453063242
0.9800188271588528
0.9800179989113567
0.9800179463806636
0.9800179086334736
0.9800178974315173
0.9800170414414373
0.9800170208603428
0.9800169975058741
0.9800169902554161
0.980016119542195
0.9800161224896328
0.9800161081231236
0.9800161017723388
0.9800152250694444
0.9800152456271235
0.9800152370715718
0.9800152293602633
0.9800143554773805
0.9800143876161803
0.9800143815110021
0.9800143707918683
0.9800135046548664
0.9800135446877863
0.9800135394345891
0.9800135249439983
0.9800126739170671
0.9800127162951799
0.9800127091306347
0.9800126901999594
0.9800118576158098
0.9800118988138051
0.9800118885194565
0.9800118651959283
0.980011056655728
0.9800110913200202
0.9800110754712597
0.9800110475422785
0.9800102623259375
0.9800102886866575
0.9800102671107906
0.9800102352450384
0.9800094738187297
0.9800094894269767
0.9800094611231567
0.9800094255545175
0.9800086811792315
0.98000868783756
0.9800086545236182
0.98000861662844
0.9800078846119847
0.9800078834111413
0.9800078458213376
0.9800078062252771
0.9800070768859929
0.9800070721368125
0.9800070332648125
0.9800069936973564
0.980006262071706
0.9800062563041055
0.9800062173882139
0.9800061782883513
0.9800054396046898
0.9800054355337617
0.9800053983451318
0.9800053606033808
0.9800046166736406
0.9800046138861732
0.9800045777820743
0.9800045407804474
0.9800037997603531
0.9800037956243479
0.9800037589549019
0.9800037216209154
0.9800029915747489
0.9800029790573331
0.9800029378739288
0.9800028978018843
0.9800021830474228
0.9800021455893567
0.9800020880141581
0.9800020412733687
0.9817662911355364
0.9817942475505785
0.9804692715503883
0.9800978901551844
0.9800376771711372
0.9800311452623617
0.9800309521386112
0.9800312514211479
0.9800314811398582
0.9800316300852824
0.9800317288414877
0.9800317921806352
0.9800318333063229
0.980031861251028
0.9800318830083538
0.9800319029745778
0.9800319192873845
0.9800319199898939
0.9800318186631197
1.002651269862057
0.9886207254461707
0.9821372552969906
0.9804096623045139
0.9800827790017133
0.9800361547900076
0.9800311276502635
0.9800308430030263
0.980030937190626
0.9800310130375839
0.9800310576749933
0.9800310815981118
0.9800310942578607
0.9800311017308349
0.9800311084341271
0.980031116734786
0.9800311241554127
0.9800311214048857
0.9800310082953062
1.05186179343361
1.005363199242104
0.9864807140818831
0.9812282092276258
0.9801961131818523
0.9800480498994867
0.9800319256690044
0.9800305683888559
0.9800304844967647
0.9800304841204996
0.9800304707246211
0.9800304515131275
0.980030432309134
0.9800304165771803
0.9800304066326806
0.9800304032875979
0.9800304023372226
0.9800303962611543
0.9800302700435575
1.055150059771855
1.007837670772751
0.9875748514659145
0.9815147345401904
0.9802437034754865
0.9800533653920086
0.9800322040228314
0.9800303001913554
0.980030088412542
0.9800299935486105
0.9800299157565997
0.980029849731019
0.98002979612756
0.9800297552944318
0.9800297273202879
0.9800297112289839
0.9800297023848862
0.9800296907349296
0.9800295578555687
1.035571197202724
0.9991435865330071
0.9850280542995236
0.9809927641523678
0.9801671720178721
0.9800450342359313
0.9800313575298384
0.9800299702091589
0.9800296853690355
0.9800295088670551
0.9800293679937448
0.9800292549229277
0.9800291663994507
0.9800290998682067
0.9800290532147169
0.9800290240636845
0.9800290058208027
0.980028989490202
0.9800288518015803
1.012495650517637
0.9901406703801972
0.9824148342699461
0.9804572106742965
0.9800889171659739