/*--------------------------------*- C++ -*----------------------------------*\
| =========                 |                                                 |
| \\      /  F ield         | OpenFOAM: The Open Source CFD Toolbox           |
|  \\    /   O peration     | Version:  2206                                  |
|   \\  /    A nd           | Website:  www.openfoam.com                      |
|    \\/     M anipulation  |                                                 |
\*---------------------------------------------------------------------------*/
FoamFile
{
    version     2.0;
    format      ascii;
    arch        "LSB;label=32;scalar=64";
    class       volScalarField;
    location    "0.15";
    object      T.air;
}
// * * * * * * * * * * * * * * * * * * * * * * * * * * * * * * * * * * * * * //

dimensions      [0 0 0 1 0 0 0];

internalField   nonuniform List<scalar> 
2268
(
272.9999900929039
272.9999893490141
272.9999885388859
272.9999875683712
272.999986410205
272.9999850460613
272.9999834464962
272.9999815746312
272.9999793880398
272.9999768482783
272.9999739056275
272.9999706157269
273.0001191878039
273.0008202092168
273.0026171231196
273.005990840191
273.0112484139052
273.018590619943
273.0284895341508
273.0419281753075
273.0605399456392
273.0876944742265
273.1327838783172
272.9999803814978
272.9999795135231
272.9999785130726
272.9999772591036
272.9999757201535
272.999973869372
272.9999716651462
272.9999690563254
272.9999659819539
272.9999623842878
272.9999581895269
272.9999534879105
273.0001741198466
273.0012127801618
273.0038283081844
273.0085604353212
273.0154922119499
273.0243178486855
273.0349304664409
273.0480356133179
273.0650649132967
273.0898423515377
273.1335869600217
272.999970452901
272.9999694768433
272.9999682987693
272.9999667821778
272.9999648929746
272.999962596205
272.9999598398354
272.9999565620008
272.9999526886376
272.9999481514966
272.999942865339
272.9999369929631
273.0002682946512
273.0018092142392
273.0056149296118
273.0123053128484
273.0217038498695
273.0329560138582
273.0452143217464
273.0586149400119
273.0740039913867
273.094901202265
273.1346018862625
272.9999599621834
272.9999588833312
272.999957524874
272.9999557433704
272.9999535034567
272.9999507640788
272.9999474666583
272.9999435442945
272.9999389172502
272.9999335164321
272.9999272558756
272.9999204189232
273.0004061346531
273.0026172570655
273.0079436221691
273.0170467824314
273.0294308822046
273.0436301563494
273.0578961623061
273.0717784052672
273.0854971974425
273.1021576177116
273.1363545556882
272.9999485933785
272.9999474217357
272.9999458930594
272.9999438656979
272.9999413040871
272.999938164154
272.9999343856198
272.9999299023778
272.999924635353
272.9999185217219
272.9999114809589
272.9999039790055
273.0006023610207
273.0036889022824
273.0108876692773
273.0228074688702
273.0385874026988
273.0562191487728
273.0730129247931
273.0877085347357
273.0996153212226
273.1115094566143
273.1390459783424
272.9999365466533
272.9999352985089
272.9999336305474
272.9999314076347
272.9999285937076
272.9999251438433
272.9999209991522
272.9999160976409
272.9999103642544
272.999903747684
272.9998961809641
272.9998884168165
273.0008801389501
273.0051082993654
273.0145847102166
273.0296780290288
273.0490635735872
273.0703956477052
273.0903006601439
273.106009104623
273.1159687575175
273.1224557535795
273.1428347837693
272.9999246026901
272.9999232995926
272.9999215368624
272.9999191839639
272.9999162032387
272.9999125504966
272.9999081710432
272.9999030113011
272.9998970073746
272.9998901346025
272.9998823727481
272.9998749787756
273.001275504433
273.0070067393367
273.0192651182837
273.0378779194812
273.0608167901481
273.08554706398
273.1091221514393
273.1261917835746
273.133793275861
273.1339557601735
273.1475844345836
272.9999134848622
272.9999121626614
272.9999103618379
272.999907954611
272.9999049026176
272.9999011675056
272.999896709322
272.9998914993608
272.9998855114977
272.9998787959352
272.9998714829422
272.9998658140179
273.0018408484504
273.0095623203793
273.025220743047
273.0477044116196
273.0739169893201
273.1008550112037
273.126702455735
273.1440180021468
273.1465801613504
273.1420112167329
273.1526615228761
348.104457839499
348.1044906984493
348.104664355433
348.1048785017504
348.1051204844268
348.105377138023
348.1056376569889
348.1058939524717
348.1061318254988
348.106344192153
348.1065269773183
348.1066827229976
348.1068143825087
348.1069251080372
348.1070147027
348.1070828270925
348.1071289128905
348.1071607748036
348.1072086962156
348.1043732623277
348.104434763636
348.1046168984869
348.1048324708036
348.1050716277402
348.1053253840308
348.1055820433589
348.1058341329261
348.1060691664703
348.1062799542462
348.1064621190004
348.1066176043498
348.1067491541214
348.1068595140173
348.1069481590526
348.1070147979036
348.1070593634142
348.1070925659445
348.1071589281717
348.104310268611
348.1044003627115
348.1045915819065
348.1048109247824
348.1050483562632
348.105297693542
348.1055483425521
348.1057941670599
348.1060242486548
348.1062314880404
348.1064114671767
348.1065656966962
348.1066963559928
348.1068057351858
348.1068932303954
348.1069585311619
348.1070021076096
348.1070362355782
348.1071039393216
348.1042400867294
348.1043513926319
348.1045540229774
348.1047881206352
348.1050284442291
348.1052742043128
348.1055182589552
348.1057568310418
348.1059812352376
348.1061843923121
348.1063617378156
348.1065142755342
348.1066436442828
348.1067517512989
348.1068379417165
348.1069019571138
348.1069445163361
348.1069791726505
348.107046917987
348.1041396057527
348.1042117991257
348.1044269317946
348.1047456059247
348.1050084126613
348.1052539501212
348.1054926994356
348.1057240819977
348.105942544943
348.1061411213015
348.1063152342532
348.1064654628566
348.1065929593382
348.1066992168521
348.1067837174033
348.1068462701469
348.1068877488793
348.1069223851082
348.1069908371041
348.1039498063552
348.1035059145203
348.1036212236487
348.1045757677558
348.1049729979927
348.1052302156861
348.10546401116
348.1056880699871
348.1059004353054
348.1060942332178
348.1062648814855
348.1064124812448
348.1065377701753
348.1066418939503
348.1067243762088
348.1067850759625
348.1068250467717
348.1068594708512
348.1069308864905
348.1017587415054
348.0989470210676
348.0983266381799
348.1036708567106
348.1048604087364
348.1052098976591
348.1054468641842
348.1056621763174
348.105865399839
348.1060518618518
348.1062172410064
348.1063608610683
348.1064828138502
348.1065838939613
348.1066636950093
348.1067220733163
348.1067604422756
348.106795192978
348.1068608723219
348.1311854079761
348.0593835043991
348.0699133022968
348.099166870301
348.104329113365
348.105154047451
348.1054485027242
348.1056692680126
348.1058667746805
348.1060453105491
348.1062034787379
348.1063408037872
348.1064574739631
348.1065540171422
348.1066303421735
348.1066865205351
348.1067245214982
348.1067569013873
348.1068153243813
272.9999124834449
272.9999111906606
272.9999094266816
272.9999070802575
272.999904121215
272.9999005351594
272.9998963360264
272.999891577601
272.9998863578365
272.999880945896
272.9998759248118
272.9998756275903
273.0026616791117
273.0130127466107
273.0327737031476
273.0594327130876
273.0885807095892
273.116236736096
273.1394685048341
273.1564709402036
273.1663624480644
273.1495107092279
273.1666530202174
272.9998997384195
272.9998985223095
272.999896934472
272.9998948887416
272.9998924097846
272.9998895729375
272.9998866299744
272.9998839774323
272.999882217919
272.9998824803232
272.9998873006643
272.9999090946075
273.0048452342364
273.0216373076811
273.0503501275285
273.0847859998236
273.1180098113713
273.1456341035036
273.1899210850302
274.9543285921505
278.4433775786333
273.6355159015433
273.2124524224869
272.9998970257813
272.9998964522385
272.9998959631073
272.9998956506561
272.9998956908963
272.9998964294904
272.9998989564499
272.9999047213429
272.9999157869913
272.9999356357272
272.9999727494746
273.0000618176749
273.008582687161
273.0347567247184
273.0739096921695
273.1142641174595
273.150200997589
273.2233093828343
274.8110323921232
287.4806587103657
289.9311728260008
285.5074338338406
273.7360162619626
272.9999234462638
272.9999250226138
272.9999281526045
272.9999335023833
272.9999415462069
272.9999533029396
272.9999724526626
273.000003150941
273.0000508910554
273.0001244789854
273.0002481616265
273.0005124718818
273.0149161976678
273.0540608320139
273.1036512422868
273.1464683269393
273.2119245315046
274.9298306774114
295.6323597446094
305.8300401705212
304.9859268042275
299.4225927744775
287.5994294913152
273.0000330720481
273.0000407022508
273.0000539138589
273.0000748614655
273.0001042748261
273.0001446553977
273.0002068911188
273.0003009569726
273.0004388575845
273.0006393660663
273.0009642828433
273.0016300666923
273.0255353794273
273.0812840995511
273.1385928549772
273.1908789764818
273.7175509511887
296.3104469586737
314.8961184576423
321.1634536751095
319.1096485104746
313.5652629731337
299.4325796118399
273.0003574082002
273.0003798777307
273.0004175910443
273.0004759710988
273.000554761366
273.0006596139241
273.0008196418066
273.001054933356
273.0013869278889
273.0018494991085
273.0025865168956
273.004069134295
273.0430976333423
273.1176591440016
273.1790216645954
273.3861046050431
293.8829284508179
318.2112946213829
329.5472353047331
331.9354563823947
330.1783144544638
326.0899381132086
311.128241724891
273.0011787871158
273.0012333470275
273.0013236846208
273.0014612429163
273.0016395618659
273.0018715833234
273.0022283009685
273.0027423478729
273.00344351992
273.0043826669278
273.0058703664288
273.0088386484588
273.0716389848957
273.1630407209466
273.2438012255541
278.7816259238875
310.8581057741299
332.4475413221305
337.8447597730437
338.834363564722
337.9351148197749
335.7412050726373
323.2115223284661
273.0030324736695
273.0031484783844
273.0033392155138
273.0036247614125
273.0039776643412
273.004429855488
273.0051390483317
273.0061420623072
273.0074659432806
273.0091693753043
273.0118795079968
273.0172662697585
273.1170420923488
273.219307569404
273.4940630150361
299.7268041118035
330.5502926675763
339.9850874829207
342.5238672429783
343.1587577251321
342.8696200174045
341.8926376091699
334.3111765205134
273.0068088699755
273.0070287200761
273.0073899005066
273.0079187072541
273.0085352567577
273.0093213994891
273.0105940860418
273.0123582183056
273.0146138807868
273.0173921453566
273.0218831213846
273.0307592597845
273.1869635029273
273.3143800156807
278.5949727474591
321.3065283627264
339.9211998259616
343.8429736095244
345.2304258674934
345.6820515913453
345.6821666906443
345.3366159332703
342.0450792484722
273.0137851062229
273.0141575735203
273.014776170258
273.015650961441
273.0166040786911
273.0178324433254
273.0199068349013
273.0227160476904
273.0262055324911
273.0302876672478
273.037094303714
273.0502926680788
273.2948057965782
273.5394692039537
298.427940753138
333.0957706094874
343.9717905286238
345.9459492942981
346.7246079374885
347.020471613584
347.0992004144237
347.0310943651533
345.9671077008043
273.0254771151116
273.026035531722
273.027000148852
273.0282835042381
273.0295974369708
273.0313394031996
273.0344243933795
273.0384840529861
273.043401308864
273.0488013215851
273.058323566008
273.075698785757
273.4402831597988
274.3106520409206
314.0602011866541
340.5771490336459
346.0110195901124
347.0661919421606
347.4892512321767
347.6608442364368
347.7289023199406
347.7389840429618
347.4791852426076
273.0432066702109
273.0439234776464
273.0453083051561
273.0469607785058
273.0486563449907
273.0509414468647
273.0551409520723
273.0604317394198
273.0666796833298
273.0732037481417
273.0858787927907
273.1051172336641
273.6111283631809
282.446156025437
343.731675246505
344.1669076407746
347.0979227760122
347.6350749517611
347.8496961895522
347.9377314714573
347.9772793614833
347.9936566235384
347.9472020306778
273.0673675607889
273.0681131116069
273.0700191518284
273.0720105466458
273.0744757430041
273.0771517666886
273.082175404267
273.0879487401848
273.0948189852261
273.1034448014272
273.120732078158
273.1406468243199
273.8581926673016
294.9178871441906
345.9660292018868
346.2028228064642
347.6407795033215
347.905045503021
348.0060834862708
348.0465631004385
348.0651470187171
348.0742756025685
348.0695506646754
273.0969271481496
273.0977569416755
273.1007561023907
273.1044799421926
273.1098567859748
273.1092225334871
273.1144965123167
273.1224528968551
273.1397427578884
273.1952463981477
274.3140468442971
279.4517519672875
279.126081880755
283.4371507569879
339.5443250061572
347.2283037344517
347.8911334357916
348.0235947360015
348.0686663180617
348.0857403493052
348.093338967865
348.0971290087833
348.0976796728394
273.1710257128874
273.1795755480563
273.1986539795764
273.2428284147696
273.380258672628
276.6471526221857
278.7214144417298
281.6793410018759
286.1792086888265
291.9309290138061
296.3824158605767
299.4479081491713
289.3995863691331
283.3694400890864
326.9599728900762
347.1278129885008
348.0120066745208
348.0725392771632
348.092003625625
348.0987668887261
348.101612091434
348.1029867498925
348.1035047200539
290.4939043710706
291.3636168499247
291.9747025401566
293.7137698165828
295.9240887907833
299.0988113425445
302.8680288895667
307.1503938740686
311.7989167894951
316.3548959856721
318.5419282276905
317.1085555599005
297.4562982627973
284.8056632823343
326.6604969567574
347.0890920376523
348.0751660769237
348.0921062022277
348.1002184487238
348.1027890027199
348.1038265685704
348.1043250622625
348.1045683803002
315.6773093677713
316.1032237087505
316.9080309181995
317.9024048796088
320.5253553632318
323.3780057520669
326.3426903821673
329.5092379335446
332.8060347914102
334.9418675369527
333.8473338474376
327.7605481922855
300.1664052428858
287.5322237989356
328.6000198594497
347.210425799968
348.1182749812069
348.0995764918732
348.1029588302422
348.1039372875537
348.1043478797433
348.1045666482615
348.1046966882191
335.3868786929019
335.8374753797556
336.4319353078179
337.1265013923677
338.6114523208735
340.4425314445533
342.1500746531672
343.6208503416495
344.6520592966406
344.0221049466168
339.8876320448603
329.566251367932
304.5785328664995
294.7020278992532
331.8260955232787
347.6285372212794
348.1506227760191
348.1017273991525
348.1038167096227
348.1042433790436
348.1044430388125
348.1045727084903
348.1046633867941
346.7587281262596
346.935541965994
347.1311369330739
347.3957345256862
347.7355358132389
348.2512608867929
348.5984774392167
348.6084551830288
347.7146433103512
345.0814220960093
338.8775143723516
327.6735197968158
315.3530823439207
317.7803417587566
336.6022238325792
348.2156609836516
348.1647161401407
348.1002951381421
348.1041723613249
348.1043344944684
348.1044531916588
348.1045449717669
348.1046185294051
349.6328953358807
349.5978628818305
349.5610603877732
349.4974022735937
349.4067191679243
349.2269214942646
348.9381752257427
348.3669852694922
347.0841996617658
344.1535201202429
338.6393832013205
331.5841270522556
327.348990145263
330.6998560535922
340.7735541028453
348.8090212371766
348.1263299979343
348.0985241238154
348.1046113263109
348.1043707142681
348.1044606452941
348.1045268071302
348.1045904948218
348.4968429419786
348.4562755571117
348.4190147469131
348.356622875794
348.2566016330188
348.1414446614759
347.9915014179034
347.6919331569047
346.9630011988187
345.3150265561343
342.3140819396888
338.4196961004371
336.0439929869714
337.7261956583141
344.027507631572
349.184131778962
348.026464204965
348.1048649206197
348.1046738070501
348.1044023617438
348.1044781939045
348.1045233482935
348.1045796060654
347.793643472521
347.8060356789273
347.8177690405874
347.8393357394278
347.8722096233341
347.9052279659306
347.9297534396829
347.9173166634708
347.7793145055472
347.3669103536755
346.5258725347477
345.2886989805586
344.215721558397
344.365874670226
346.527883559957
349.0138586051553
347.9627562768624
348.1155145676847
348.1040769754375
348.1044599827354
348.1045010654271
348.1045305193344
348.1045789554001
348.1741299446938
348.1733012691423
348.1722592286587
348.1699502604046
348.1672604369212
348.1671619738755
348.1682359714081
348.162087189306
348.130048650334
348.0428300711127
347.877784533811
347.6473193141158
347.4429448335432
347.4590251738836
347.8446087025522
348.5643310584171
347.9871910000389
348.1185740554887
348.1036803859918
348.1045109756672
348.1045218630101
348.1045402410753
348.1045779202722
348.0962769348003
348.096193986641
348.0962239727236
348.096235937019
348.0958371932022
348.094334422372
348.0919950049628
348.0906909503902
348.0929933454464
348.0975186307752
348.0958413102975
348.0829168034697
348.0721236631642
348.0917379512449
348.1527992837755
348.2500834744952
348.0472370945142
348.1133042300862
348.1039459225046
348.1045243486063
348.1045347777531
348.1045453870675
348.1045686542794
348.1039366870922
348.1040062987004
348.1040688044275
348.104113765427
348.1042027962673
348.1044794954201
348.1050082974824
348.105632657408
348.1060386924249
348.1063320029831
348.1072718414213
348.1094305784853
348.1135398655229
348.1214909049946
348.132105371949
348.1330770168166
348.0873970261829
348.1076219808128
348.1043379604271
348.1045183430833
348.1045337067901
348.1045383710503
348.1045445409869
348.1037848548078
348.1038315395235
348.1038941782585
348.1039367230375
348.1039363329009
348.1038818907943
348.1037873460524
348.1037016476014
348.1037046518444
348.1038568724631
348.1041741261303
348.1047013147565
348.105552125609
348.1068369240771
348.1082573073971
348.1077343041229
348.1013937618263
348.1051400633912
348.104486151001
348.1045048526349
348.1045162591856
348.1045155125363
348.1045041757355
348.1036532694792
348.103698545122
348.103760929341
348.1038120924413
348.1038384239129
348.1038395826694
348.1038285636568
348.1038238942463
348.1038392220685
348.1038806979336
348.1039516200707
348.1040547744087
348.104192830507
348.1043646712261
348.1045390049104
348.1045917705369
348.1041036699398
348.1045353353265
348.1044732384987
348.1044731063632
348.1044783700582
348.1044717153442
348.1044449830133
348.1036087259971
348.1036498909227
348.1037084372961
348.1037620321852
348.1037978568769
348.1038110465501
348.1038074562223
348.1038012428077
348.1038083333559
348.1038394594562
348.1038967295416
348.1039750378678
348.104065953172
348.1041607643153
348.1042504312364
348.1043218394431
348.1043442278832
348.1043995291736
348.1044116196068
348.1044169006053
348.1044185045504
348.1044067394338
348.1043684364561
348.1035460278026
348.1035807634695
348.1036318112896
348.1036825550349
348.1037226318727
348.103745904865
348.1037538258427
348.1037551906942
348.103762228993
348.1037853744832
348.1038296393429
348.1038939086544
348.1039725603497
348.1040578875132
348.1041418783026
348.1042165155045
348.1042721791342
348.1043071279333
348.1043256909963
348.1043330909581
348.1043324781929
348.1043171909621
348.104272434649
348.1034797501804
348.1035069773123
348.1035483144679
348.1035922705141
348.1036312386003
348.1036590806787
348.1036745190114
348.1036822447218
348.1036909905127
348.1037098434036
348.1037448929892
348.1037976179164
348.1038651942981
348.1039419586773
348.1040210369775
348.1040951932982
348.1041569264981
348.1041946752666
348.1042159696361
348.1042246058575
348.1042235851235
348.1042073340868
348.1041607661677
348.1034086859116
348.1034281533677
348.1034589564609
348.1034938236794
348.1035277695545
348.1035554104474
348.1035740777986
348.1035855702887
348.1035955940596
348.1036114168784
348.1036391547982
348.1036818994465
348.1037391252877
348.1038072155534
348.1038805309229
348.1039523509696
348.1040153486488
348.1040573319577
348.1040823220094
348.1040930531966
348.1040928794351
348.1040774906915
348.1040331647731
348.1033329277677
348.1033451502402
348.1033659012773
348.103391094845
348.1034179310725
348.1034420951497
348.103460408016
348.1034728007554
348.1034825979286
348.103495224015
348.1035162402594
348.103549548223
348.1035963398735
348.1036549584396
348.1037214390392
348.103790121394
348.103853890675
348.1039018674006
348.1039321023745
348.1039470013359
348.1039496417862
348.103936826056
348.1038967186782
348.1032524907167
348.1032585666433
348.1032707674692
348.1032871789407
348.1033065986716
348.1033257538417
348.103341479568
348.1033526459862
348.103360868549
348.1033699817191
348.1033847422642
348.1034093264897
348.1034461459545
348.103495193359
348.1035540155918
348.1036180661478
348.1036811737231
348.1037361378619
348.1037715680182
348.1037912750348
348.1037972319988
348.103787351551
348.1037524885238
348.1031672761308
348.1031686714874
348.1031744942804
348.1031841017565
348.103197268977
348.1032115497618
348.1032240253091
348.1032330196536
348.1032389993292
348.1032445462803
348.1032536129074
348.1032703925479
348.1032981931793
348.1033384977003
348.1033903549721
348.1034501735514
348.1035122277924
348.1035693584657
348.1036101303214
348.1036350307533
348.1036449071796
348.1036381678575
348.103607888592
348.1030773039688
348.1030756265627
348.1030774862994
348.1030827686274
348.103091692276
348.1031023439693
348.1031120874054
348.1031190098812
348.103122848077
348.1031252361623
348.1031293833681
348.1031393403132
348.1031590100838
348.1031910431116
348.1032357355958
348.1032904987817
348.1033501163392
348.1034075287682
348.1034520024746
348.1034807993495
348.1034936433083
348.1034892863053
348.1034628304478
348.1029825213302
348.1029793887369
348.1029796274364
348.1029831535042
348.1029901600199
348.1029990005935
348.1030072494631
348.1030129045205
348.1030152231268
348.1030151284919
348.1030152131597
348.1030193228005
348.1030317536608
348.103056015476
348.1030935074738
348.1031426700854
348.1031989121336
348.1032553184609
348.1033018766909
348.1033334198038
348.1033487445075
348.103346322436
348.1033222722384
348.1028833339257
348.102880127557
348.1028806886789
348.1028845523026
348.1028916791529
348.1029004325034
348.1029085044577
348.1029138527455
348.1029154131224
348.1029135831408
348.1029104598177
348.1029096995551
348.1029158166239
348.1029329576285
348.1029634646535
348.1030067017158
348.1030585777984
348.1031122725085
348.1031588382558
348.1031911394285
348.103207497265
348.1032061373669
348.1031836978137
348.1027800386631
348.1027780031263
348.1027802947321
348.1027860343965
348.1027947250292
348.1028046382625
348.1028135199941
348.1028192820981
348.1028206305688
348.1028175825371
348.102811896578
348.1028070617125
348.102807712736
348.102818500409
348.1028425424805
348.1028799175552
348.1029269816077
348.1029770850573
348.1030222381268
348.1030540477443
348.1030705427543
348.1030696004512
348.1030478083093
348.102673762406
348.1026736581862
348.1026783905007
348.1026865716818
348.1026973580612
348.1027088527143
348.1027187973411
348.1027250868029
348.1027262559256
348.1027221218714
348.102714212593
348.1027058993304
348.1027019520423
348.1027073962996
348.102725893197
348.1027580006852
348.1028003507694
348.1028463506781
348.102888234567
348.1029178884647
348.1029329834211
348.1029315521351
348.1029102405012
348.1025655712335
348.1025678300769
348.1025748939967
348.1025852124006
348.1025976203098
348.1026101645463
348.1026205881026
348.1026267494661
348.1026271544218
348.1026215182511
348.1026113016538
348.1025999205969
348.1025923313973
348.1025938788915
348.102608483543
348.1026368218925
348.1026754407798
348.1027175023141
348.1027551586794
348.1027810251439
348.1027928471267
348.1027893697272
348.1027679954312
348.1024573093414
348.1024611736682
348.1024692170715
348.1024798873481
348.1024920298476
348.1025037501465
348.1025129561677
348.1025176486646
348.1025164452072
348.1025091268231
348.1024972384365
348.1024842761588
348.1024752385318
348.1024753786972
348.1024883188411
348.1025142669221
348.1025492614719
348.1025861623057
348.102617286332
348.1026363921338
348.1026422674847
348.1026355010553
348.1026158884032
348.1023482839389
348.1023523716744
348.1023574765584
348.1023636668219
348.1023700436147
348.1023755350923
348.1023790249274
348.1023795713024
348.1023767106867
348.102370818014
348.1023633164266
348.1023566082811
348.1023536018265
348.1023567936596
348.1023672345785
348.1023838489249
348.1024035592769
348.1024224383768
348.1024374877625
348.1024468448101
348.1024514185642
348.1024522058528
348.1024485342135
273.2069181639257
347.6864324251774
350.1155148496539
347.4148292527576
273.2266309693412
274.6075119102043
305.3623019436887
327.4380893411634
273.4663329060276
275.2534846728079
284.7383959513029
302.6668184488967
283.9066035370008
284.2216460237362
290.1947578020688
301.5908034488721
295.4938357415716
295.9381419481483
301.5022747890174
310.5857817315629
308.389101413569
309.8764646554948
315.276251517548
322.8190252232483
322.2391108593679
324.4152826390439
328.9239991822267
334.2796072872869
334.3855579147728
336.2491245294003
339.1309764208182
342.0881763205612
342.3172626085392
343.3921957374027
344.7636847554381
346.0102652768944
346.1459498598451
346.5962716015042
347.0959029433508
347.5081994692201
347.556458554221
347.7040158416004
347.8503821182088
347.9619656664229
347.9730520668591
348.0136784561098
348.049836105904
348.0755522232169
348.0770307140023
348.0866325542391
348.0946050304656
348.0998514862471
348.0996825842724
348.1017583365837
348.1033654870207
348.1043780112647
348.1040631115029
348.1045277687228
348.104881719873
348.1051007192045
348.1047816308829
348.1049428271814
348.1050762010274
348.1051545382369
348.1048351373919
348.104950668212
348.1050470039637
348.1050980560844
348.1047896979433
348.1048992474705
348.1049835605676
348.1050262818417
348.10474473443
348.104846620911
348.1049192955761
348.1049566341869
348.1047145250502
348.1048012173429
348.1048598633931
348.1048911294021
348.1046934377105
348.1047598919058
348.1048037300181
348.1048277542461
348.1046730823572
348.1047175243467
348.104746995312
348.1047633762753
348.1046447991112
348.1046689534419
348.1046861259749
348.1046955512056
348.1046044188668
348.1046114334731
348.1046186460876
348.1046224929903
348.1045495893562
348.1045434663665
348.1045434080503
348.1045432514285
348.1044814374673
348.104465295282
348.1044598902827
348.1044571021641
348.1043999481206
348.1043768449891
348.1043680250879
348.1043637634897
348.1043069624916
348.1042789797325
348.104267951978
348.1042630187799
348.1042020516883
348.1041717819592
348.1041600576257
348.1041551562681
348.1040874735029
348.1040566539351
348.1040450905724
348.1040405979624
348.1039632710695
348.103934170605
348.1039239600328
348.1039202737067
348.1038329479305
348.1038064652443
348.1037979186273
348.1037950569701
348.1036972012928
348.1036743984088
348.1036680542006
348.1036661319063
348.1035599527151
348.103540320637
348.1035356977461
348.1035343743456
348.1034214769615
348.1034047125212
348.103401636556
348.1034007974519
348.1032846463384
348.1032692667458
348.1032667274326
348.10326583288
348.1031482740536
348.1031334022553
348.1031309872682
348.1031299295529
348.1030127762295
348.1029974494184
348.1029945377356
348.1029930280745
348.1028757746201
348.1028601267546
348.1028569403294
348.1028552097348
348.1027351057234
348.1027200483074
348.1027171554654
348.1027155833887
348.1025898995874
348.1025779012
348.1025766819309
348.1025761134897
348.1024435130854
348.1024404293803
348.1024450778975
348.1024468774916
347.4817308309685
347.4749886596056
347.9464703065515
348.0796352540385
348.1019254174914
348.1048741327503
348.1054102015845
348.105661447695
348.1058617721829
348.1060359137178
348.1061876086214
348.1063182718436
348.1064289523573
348.1065206224039
348.1065938224202
348.1066492031971
348.1066890303952
348.1067186727137
348.1067695404808
340.2421084852787
345.0744146411275
347.3551649822718
347.9688148856428
348.0858250449733
348.10299783582
348.1052071925794
348.1056215688399
348.1058314134638
348.106000606761
348.1061443998764
348.106267090505
348.1063704187894
348.1064556228326
348.1065235445813
348.1065750833538
348.1066123697816
348.1066395742737
348.1066928391446
324.3247640103362
339.3285191536262
345.8261936421806
347.6788295066762
348.0457208061051
348.098795929774
348.1048571445151
348.1055842723868
348.1058045423362
348.1059615414114
348.1060940766948
348.10620677158
348.1063014314772
348.1063792500055
348.1064410510761
348.106487708897
348.1065215452952
348.1065458075809
348.1066017230215
323.3184524212687
338.4976517364789
345.4442165600548
347.577943062882
348.0291209138512
348.0970161432494
348.1047438522965
348.1055818268665
348.1057893707678
348.105930844742
348.1060499850531
348.1061514151382
348.1062365963446
348.1063064800926
348.1063617507595
348.1064032567257
348.1064330046323
348.1064548212667
348.1065109477952
329.4425464766816
341.4453112066083
346.3385533654595
347.7635088450436
348.0566073454013
348.1001024709257
348.1050488216391
348.1056172230628
348.1057854562963
348.1059083841423
348.1060132982716
348.1061030286271
348.1061784817928
348.1062402892825
348.106288972452
348.1063252079439
348.1063512277562
348.1063701633323
348.1064257806294
336.9449269388418
344.5515107041159
347.2607639450135
347.9539920202587
348.0846752299906
348.1032129418364
348.1053516421775
348.1056549812338
348.1057845776448
348.1058890993528
348.1059799257959
348.1060580939894
348.1061239366668
348.1061777805036
348.1062199412918
348.1062510574006
348.1062730864791
348.1062898018286
348.1063434102733
342.7817005244758
346.5993674720498
347.780130630914
348.0512134587435
348.0983479640906
348.1047455675222
348.1055188497234
348.1056810623158
348.1057823575419
348.1058703729294
348.1059481404525
348.1060155026646
348.1060723359817
348.1061186907123
348.1061547259785
348.1061809641636
348.1061996132632
348.1062137778873
348.1062653156416
346.0724538745612
347.5902666417128
348.0037231253231
348.0896254111675
348.1034991953655
348.105328951778
348.1055934637619
348.1056933569125
348.1057746200899
348.1058484653516
348.1059145893783
348.1059721800924
348.106020812777
348.1060603233537
348.1060907160548
348.1061125370413
348.1061277730968
348.1061400746598
348.1061885176682
347.4738811137432
347.960099965573
348.0789738845379
348.1016022419411