/*--------------------------------*- C++ -*----------------------------------*\
| =========                 |                                                 |
| \\      /  F ield         | OpenFOAM: The Open Source CFD Toolbox           |
|  \\    /   O peration     | Version:  2206                                  |
|   \\  /    A nd           | Website:  www.openfoam.com                      |
|    \\/     M anipulation  |                                                 |
\*---------------------------------------------------------------------------*/
FoamFile
{
    version     2.0;
    format      ascii;
    arch        "LSB;label=32;scalar=64";
    class       volScalarField;
    location    "0.15";
    object      T.water;
}
// * * * * * * * * * * * * * * * * * * * * * * * * * * * * * * * * * * * * * //

dimensions      [0 0 0 1 0 0 0];

internalField   nonuniform List<scalar> 
2268
(
272.9999900929053
272.9999893490161
272.9999885388878
272.9999875683729
272.9999864102066
272.999985046063
272.9999834464975
272.9999815746327
272.9999793880415
272.9999768482793
272.9999739056278
272.9999706157271
273.0001191879404
273.000820209909
273.0026171250353
273.0059908440422
273.0112484202693
273.018590629213
273.028489546453
273.0419281907122
273.0605399638052
273.0876944941169
273.1327838971691
272.9999803815014
272.9999795135259
272.9999785130757
272.999977259107
272.9999757201567
272.9999738693754
272.9999716651497
272.9999690563289
272.9999659819571
272.9999623842909
272.9999581895297
272.9999534879124
273.0001741200403
273.0012127811282
273.0038283107874
273.0085604403439
273.0154922198175
273.0243178594798
273.0349304798463
273.0480356292267
273.0650649313691
273.0898423711578
273.1335869796483
272.9999704529056
272.9999694768486
272.9999682987747
272.9999667821827
272.9999648929802
272.9999625962101
272.9999598398405
272.9999565620058
272.999952688643
272.9999481515021
272.9999428653441
272.999936992967
273.0002682949286
273.0018092155975
273.0056149331814
273.0123053195049
273.021703859872
273.0329560269832
273.0452143373844
273.0586149578136
273.0740040107872
273.0949012222549
273.1346019060621
272.99995996219
272.9999588833384
272.9999575248809
272.999955743377
272.9999535034635
272.9999507640866
272.9999474666655
272.999943544302
272.9999389172569
272.9999335164395
272.999927255883
272.99992041893
273.0004061350387
273.0026172589157
273.0079436268963
273.0170467909606
273.0294308945766
273.0436301720051
273.057896180389
273.0717784251896
273.0854972185242
273.1021576387008
273.1363545757319
272.9999485933876
272.999947421745
272.9999458930686
272.9999438657067
272.9999413040963
272.9999381641638
272.9999343856294
272.999929902387
272.9999246353628
272.9999185217313
272.9999114809675
272.999903979014
273.000602361544
273.0036889047226
273.010887675298
273.0228074793706
273.038587417485
273.0562191669825
273.0730129454526
273.0877085569938
273.0996153442413
273.1115094788877
273.1390459989824
272.9999365466634
272.9999352985197
272.9999336305584
272.9999314076453
272.9999285937186
272.9999251438542
272.9999209991636
272.9999160976522
272.9999103642656
272.9999037476954
272.9998961809745
272.9998884168269
273.0008801396436
273.005108302489
273.0145847176053
273.0296780414286
273.0490635905709
273.0703956682261
273.0903006831958
273.1060091288081
273.1159687821635
273.1224557766411
273.1428348052149
272.9999246027022
272.9999232996045
272.9999215368748
272.9999191839755
272.9999162032513
272.9999125505091
272.9999081710561
272.9999030113141
272.9998970073872
272.9998901346148
272.9998823727598
272.9998749787869
273.0012755053373
273.0070067432449
273.0192651270781
273.0378779335782
273.0608168088459
273.0855470862108
273.1091221763356
273.1261918090475
273.1337933013397
273.1339557824529
273.1475844567341
272.9999134848753
272.9999121626739
272.9999103618509
272.9999079546244
272.9999049026307
272.9999011675192
272.9998967093352
272.9998914993745
272.9998855115111
272.9998787959476
272.9998714829538
272.9998658140275
273.0018408496122
273.0095623251794
273.0252207532659
273.0477044271573
273.0739170090787
273.1008550341102
273.1267024807822
273.1440180275333
273.1465801838056
273.142011232831
273.1526615457261
348.1044580519782
348.1044909103049
348.1046645661931
348.1048787111232
348.1051206922767
348.1053773443352
348.1056378618403
348.1058941559374
348.1061320277138
348.1063443932454
348.1065271774211
348.1066829222378
348.1068145810114
348.1069253059201
348.107014900073
348.1070830240627
348.1071291095616
348.1071609712767
348.1072088925907
348.1043734749257
348.1044349755883
348.1046171093118
348.1048326802102
348.1050718356025
348.1053255903349
348.1055822481899
348.1058343363747
348.1060693686694
348.1062801553247
348.1064623190883
348.1066178035786
348.1067493526132
348.1068597118891
348.1069483564152
348.1070149948631
348.1070595600739
348.1070927624065
348.1071591245375
348.1043104814844
348.1044005748726
348.1045917928672
348.1048111342577
348.1050485641509
348.1052978998362
348.1055485473578
348.1057943704811
348.1060244508263
348.1062316890929
348.1064116672417
348.106565895903
348.1066965544643
348.1068059330375
348.1068934277384
348.1069587281028
348.1070023042523
348.1070364320234
348.1071041356699
348.1042403000396
348.1043516051139
348.1045542341543
348.1047883302176
348.1050286521565
348.1052744105915
348.1055184637253
348.1057570344237
348.1059814373688
348.1061845933259
348.1063619378447
348.1065144747072
348.1066438427226
348.1067519491211
348.106838139031
348.1069021540272
348.1069447129519
348.1069793690702
348.1070471143096
348.1041398196955
348.1042120120455
348.1044271434038
348.1047458156899
348.1050086206419
348.105254156391
348.1054929041629
348.1057242853304
348.105942747022
348.106141322264
348.1063154342343
348.106465661985
348.1065931577346
348.1066994146333
348.1067839146794
348.1068464670238
348.1068879454599
348.1069225814939
348.106991033393
348.1039500210001
348.1035061279707
348.1036214372454
348.1045759780555
348.1049732060487
348.1052304219475
348.1054642158359
348.1056882732568
348.1059006373193
348.1060944341173
348.1062650814068
348.1064126803167
348.1065379685194
348.1066420916815
348.1067245734372
348.1067852727945
348.1068252433088
348.1068596671942
348.1069310827377
348.1017589633073
348.0989472348036
348.0983268651106
348.1036710696309
348.1048606170521
348.1052101039157
348.1054470687953
348.1056623795054
348.105865601769
348.106052062673
348.1062174408536
348.1063610600713
348.1064830121291
348.1065840916321
348.1066638921811
348.1067222700937
348.1067606387609
348.1067953892699
348.1068610685176
348.1311855611904
348.0593837170464
348.0699136026638
348.0991670955385
348.1043293229767
348.1051542537865
348.1054487072982
348.1056694711281
348.1058669765239
348.106045511281
348.1062036784976
348.1063410027064
348.1064576721649
348.1065542147412
348.1066305392778
348.1066867172495
348.1067247179238
348.1067570976228
348.1068155205209
272.999912483458
272.9999111906739
272.9999094266949
272.9999070802715
272.9999041212284
272.9999005351727
272.9998963360395
272.9998915776134
272.9998863578473
272.9998809459047
272.9998759248174
272.9998756275901
273.0026616805753
273.0130127523875
273.0327737147355
273.0594327297493
273.0885807297169
273.1162367583041
273.13946852822
273.1564709661474
273.1663624480608
273.1495107334339
273.1666530456993
272.999899738432
272.9998985223218
272.9998969344834
272.9998948887528
272.9998924097951
272.9998895729469
272.9998866299811
272.9998839774364
272.9998822179175
272.9998824803126
272.999887300639
272.9999090945568
273.0048452363372
273.0216373154008
273.0503501415077
273.0847860181919
273.1180098317336
273.1456341244362
273.1899210930987
274.9543285833148
278.4433775699462
273.6355158937803
273.212452422486
272.9998970257832
272.9998964522395
272.9998959631063
272.9998956506528
272.999895690889
272.999896429478
272.9998989564292
272.9999047213096
272.9999157869397
272.9999356356461
272.999972749347
273.0000618174634
273.0085826898631
273.0347567342212
273.0739097076884
273.1142641362999
273.1502010183518
273.2233093776775
274.8110323702145
287.4806586951947
289.9311728103132
285.5074338117931
273.736016100407
272.9999234462242
272.9999250225716
272.9999281525571
272.9999335023274
272.9999415461386
272.9999533028551
272.9999724525531
273.0000031507935
273.0000508908525
273.0001244787031
273.0002481612176
273.0005124712437
273.0149162005815
273.0540608427014
273.1036512579373
273.1464683441412
273.211924461949
274.9298306604767
295.632359734927
305.8300401669766
304.9859267985829
299.4225927624491
287.5994294726885
273.0000330718889
273.0000407020825
273.0000539136754
273.0000748612583
273.0001042745869
273.0001446551149
273.0002068907712
273.0003009565295
273.0004388570042
273.0006393652928
273.0009642817702
273.0016300650798
273.0255353814374
273.0812841102616
273.1385928703114
273.1908789950865
273.7175509502923
296.3104469515544
314.8961184575601
321.1634536762045
319.10964851195
313.5652629726834
299.4325796058315
273.0003574077338
273.0003798772418
273.0004175905194
273.0004759705175
273.0005547607104
273.0006596131705
273.0008196409052
273.0010549322394
273.0013869264732
273.0018494972855
273.0025865144466
273.0040691307225
273.0430976318851
273.117659152825
273.1790216793718
273.3861046050411
293.8829284473263
318.2112946217339
329.5472353057689
331.9354563836566
330.1783144568168
326.0899381169374
311.1282417233972
273.0011787859573
273.0012333458208
273.0013236833358
273.0014612415133
273.0016395603139
273.0018715815751
273.0022282989211
273.0027423453961
273.0034435168603
273.0043826631031
273.0058703614284
273.0088386413628
273.0716389743654
273.163040727412
273.2438012508021
278.7816259067211
310.8581057731357
332.4475413228189
337.8447597735834
338.8343635654622
337.9351148211548
335.7412050753665
323.2115223320845
273.0030324711178
273.0031484757411
273.0033392127203
273.0036247583985
273.0039776610614
273.0044298518586
273.0051390441579
273.0061420573634
273.0074659373159
273.0091693680469
273.0118794987426
273.0172662569964
273.1170420609295
273.2193075668354
273.4940630150347
299.7268041100821
330.5502926681876
339.9850874831826
342.5238672432237
343.1587577254665
342.8696200179849
341.8926376103021
334.3111765255236
273.0068088649087
273.0070287148532
273.0073898950242
273.0079187014052
273.0085352504905
273.0093213926614
273.0105940783179
273.012358209337
273.014613870197
273.0173921328077
273.0218831057661
273.0307592390263
273.1869634302951
273.3143799982988
278.5949727455125
321.3065283629221
339.9211998261202
343.8429736096333
345.2304258675937
345.6820515914698
345.6821666908343
345.3366159336281
342.0450792506192
273.0137850970939
273.0141575641615
273.0147761604926
273.0156509511465
273.0166040678033
273.0178324316203
273.0199068218622
273.0227160328472
273.0262055153327
273.0302876474601
273.0370942796354
273.0502926379536
273.2948056750579
273.5394692080371
298.4279407531262
333.0957706095351
343.9717905286777
345.9459492943427
346.7246079375263
347.0204716136245
347.0992004144765
347.0310943652386
345.9671077012511
273.0254771002249
273.0260355165668
273.0270001331157
273.0282834878546
273.0295974197626
273.0313393848815
273.0344243732807
273.038484030622
273.043401283683
273.0488012932075
273.0583235317829
273.0756987482629
273.4402830801961
274.3106520409186
314.0602011866285
340.5771490336801
346.0110195901361
347.0661919421786
347.489251232191
347.6608442364503
347.7289023199545
347.7389840429807
347.4791852426711
273.0432066484984
273.0439234557304
273.0453082824314
273.046960754987
273.0486563199745
273.050941420598
273.055140923976
273.0604317094987
273.0666796509841
273.0732037103423
273.0858787460563
273.1051171986662
273.6111283657449
282.4461560228142
343.7316752465056
344.1669076408121
347.0979227760234
347.6350749517695
347.8496961895578
347.9377314714631
347.9772793614882
347.9936566235428
347.9472020306882
273.0673675327379
273.0681130832428
273.0700191218846
273.0720105140551
273.0744757059055
273.0771517330514
273.0821753724703
273.0879487102283
273.0948189519108
273.1034447424508
273.1207320154212
273.1406467906373
273.8581926672996
294.917887139577
345.9660292018919
346.2028228064862
347.6407795033272
347.9050455030252
348.006083486274
348.0465634558543
348.0651473479076
348.0742759255796
348.0695506646781
273.0969271104274
273.0977569005668
273.1007560544195
273.1044798751548
273.1098567013971
273.1092225214768
273.1144964992096
273.1224528598424
273.1397426228244
273.1952463981417
274.314046842237
279.451751944591
279.1260818753138
283.4371507569787
339.544325006263
347.2283037344627
347.8911334357946
348.0235950733054
348.0686665911078
348.0857405951946
348.0933392006414
348.0971292353439
348.0976799063969
273.1710257128848
273.1795755480532
273.1986539795711
273.2428284147568
273.380258672567
276.6471525998173
278.7214144174276
281.6793409862791
286.1792086667237
291.9309289960116
296.3824158460486
299.447908140481
289.3995863646426
283.3694400890319
326.9599728901345
347.1278128687543
348.0120069804678
348.0725395266977
348.092003846524
348.098767098253
348.1016122956959
348.1029869515369
348.1035049217172
290.4939043588877
291.3636168384459
291.9747025283867
293.7137698056097
295.9240887795636
299.0988113322376
302.8680288810721
307.1503938678344
311.798916785489
316.3548959841173
318.5419282272247
317.1085555594739
297.4562982621387
284.8056632820957
326.6604969567975
347.0890920376554
348.0751662894239
348.0921064163599
348.1002186501901
348.1027891999679
348.1038267641267
348.1043252570993
348.1045685749918
315.6773093666005
316.1032237076819
316.9080309173385
317.9024048790239
320.5253553633538
323.3780057529014
326.3426903836656
329.509237935565
332.8060347936155
334.9418675387023
333.8473338483353
327.760548192422
300.1664052428308
287.5322237987208
328.6000198596207
347.2104257999771
348.1182751554667
348.0995766927516
348.1029590243526
348.1039374804402
348.1043480723192
348.1045668408269
348.1046968808619
335.3868786943232
335.8374753812045
336.4319353092739
337.126501393841
338.6114523222635
340.4425314458406
342.1500746542965
343.6208503425316
344.652059297115
344.0221049467402
339.8876320448595
329.5662513680612
304.5785328662257
294.7020278915492
331.8260955237642
347.6285372212894
348.1506229671678
348.1017275960407
348.1038169007319
348.1042435701189
348.1044432300369
348.1045728999172
348.1046635783853
346.7587281264831
346.9355419662025
347.1311369332626
347.395734525849
347.7355358133627
348.2512608868602
348.5984774392418
348.6084551830299
347.714643310362
345.0814220961082
338.8775143726137
327.6735197968667
315.3530823437665
317.7803417583901
336.6022238330864
348.2156609836544
348.1647163935009
348.1002953321275
348.1041725509235
348.104334684558
348.1044533820183
348.104545162376
348.1046187201978
349.6328953358919
349.597862881843
349.5610603877868
349.4974022736098
349.406719167944
349.2269214942896
348.9381752257727
348.3669852695292
347.0841996618177
344.1535201203195
338.6393832013759
331.5841270522581
327.3489901454359
330.6998560542431
340.7735541032188
348.8090211479505
348.126330284758
348.0985243116849
348.104611515102
348.1043709036663
348.104460834964
348.1045269970498
348.1045906849241
348.4968429419965
348.456275557128
348.4190147469291
348.3566228758083
348.2566016330308
348.1414446614852
347.9915014179099
347.6919331569099
346.9630011988239
345.3150265561394
342.3140820753747
338.4196961004481
336.0439929870888
337.7261956585974
344.0275076317653
349.1841317789671
348.0264644464494
348.1048651029973
348.1046739956667
348.1044025505515
348.104478382978
348.1045235376047
348.1045797955536
347.7936434301462
347.8060356356873
347.817768996929
347.8393356964302
347.872209582926
347.9052279261242
347.9297534014345
347.9173166406118
347.7793145173297
347.3669103953914
346.525872508677
345.2886989805581
344.2157215584038
344.3658746702538
346.5278835599833
349.0138586051621
347.9627564742257
348.1155147475572
348.1040771642679
348.1044601709768
348.1045012539715
348.1045307081016
348.1045791443392
348.174130137625
348.1733014640276
348.1722594251409
348.1699504592438
348.167260639413
348.1671621840371
348.168236195642
348.1620874318143
348.1300489003629
348.0428302875152
347.8777846618686
347.647319322579
347.4429447396355
347.4590250499776
347.8446085795382
348.5643310584202
347.9871911859793
348.1185742350589
348.1036805748183
348.1045111634007
348.1045220510806
348.1045404293542
348.1045781087199
348.0962771245186
348.0961941762295
348.0962241622324
348.0962361264258
348.0958373825204
348.094334611207
348.0919951916337
348.0906911317714
348.092993519707
348.0975187996675
348.0958414718895
348.0829169447265
348.0721237732348
348.091738043273
348.1527994001472
348.2500837502267
348.0472372831618
348.1133044113295
348.1039461107038
348.1045245359444
348.1045349653982
348.1045455749127
348.1045688422894
348.1039368693657
348.1040064809754
348.104068986744
348.1041139477928
348.1042029786372
348.1044796777301
348.1050084798521
348.1056328402854
348.1060388761321
348.106332186813
348.1072720237
348.1094307572854
348.1135400394155
348.1214910766583
348.1321055519604
348.1330772212044
348.0873972153158
348.1076221646837
348.1043381477291
348.1045185301031
348.1045338940561
348.1045385585092
348.1045447286069
348.1037850383752
348.1038317231167
348.1038943618973
348.1039369067498
348.1039365167193
348.1038820747584
348.1037875301806
348.1037018318623
348.1037048361762
348.1038570568471
348.1041743105716
348.1047014991588
348.1055523097894
348.1068371081695
348.1082574925897
348.10773449229
348.1013939489866
348.1051402489003
348.1044863376466
348.1045050393591
348.1045164461158
348.1045156996519
348.1045043630086
348.1036534530261
348.1036987286901
348.1037611129513
348.1038122761151
348.1038386076665
348.1038397665147
348.1038287476031
348.1038240783058
348.1038394062592
348.1038808822742
348.1039518045762
348.1040549590891
348.1041930153692
348.1043648562866
348.1045391902497
348.1045919563176
348.1041038559532
348.1045355212308
348.1044734247659
348.1044732928096
348.104478556691
348.1044719021538
348.1044451699758
348.1036089095827
348.103650074529
348.1037086209421
348.1037622158901
348.1037980406574
348.1038112304207
348.1038076401937
348.1038014268889
348.103808517555
348.1038396437833
348.1038969140095
348.1039752224927
348.1040661379714
348.104160949304
348.1042506164308
348.1043220248609
348.1043444135182
348.1043997149803
348.1044118056217
348.1044170868006
348.1044186909197
348.1044069259711
348.1043686231414
348.1035462114214
348.1035809471081
348.1036319949651
348.103682738765
348.1037228156728
348.1037460887475
348.1037540098191
348.1037553747728
348.1037624131806
348.1037855587888
348.1038298237768
348.1038940932282
348.103972745076
348.1040580724057
348.1041420633732
348.1042167007611
348.1042723645809
348.1043073135636
348.1043258768033
348.1043332769314
348.1043326643273
348.1043173772545
348.1042726210846
348.1034799338234
348.1035071609738
348.1035484981638
348.1035924542595
348.1036314224092
348.1036592645639
348.1036747029846
348.10368242879
348.1036911746839
348.1037100276841
348.1037450773854
348.1037978024392
348.1038653789565
348.1039421434822
348.1040212219386
348.1040953784236
348.1041571117931
348.10419486073
348.1042161552602
348.1042247916351
348.1042237710495
348.1042075201609
348.104160952378
348.1034088695712
348.1034283370449
348.1034591401693
348.1034940074324
348.1035279533657
348.103555594329
348.1035742617611
348.1035857543401
348.1035957782069
348.1036116011275
348.1036393391552
348.1036820839174
348.1037393098813
348.1038074002772
348.1038807157848
348.1039525359781
348.1040155338091
348.1040575172711
348.1040825074709
348.1040932387994
348.1040930651764
348.1040776765707
348.104033350781
348.1033331114389
348.1033453339272
348.1033660849921
348.1033912786001
348.1034181148808
348.1034422790219
348.1034605919629
348.1034729847851
348.1034827820477
348.1034954082297
348.1035164245743
348.1035497326431
348.1035965244047
348.1036551430884
348.103721623812
348.103790306298
348.1038540757156
348.1039020525807
348.103932287692
348.1039471867854
348.1039498273643
348.1039370117634
348.1038969045062
348.1032526743953
348.1032587503356
348.1032709511865
348.1032873626945
348.1033067824728
348.1033259377013
348.1033416634959
348.1033528299907
348.1033610526377
348.1033701658968
348.1033849265359
348.1034095108596
348.1034463304265
348.1034953779387
348.103554200283
348.1036182509578
348.1036813586581
348.1037363229244
348.1037717532082
348.1037914603488
348.1037974174342
348.1037875371067
348.1037526741925
348.1031674598119
348.1031688551811
348.1031746779967
348.1031842855057
348.1031974527688
348.1032117336068
348.103224209217
348.1032332036336
348.103239183387
348.1032447304217
348.1032537971375
348.1032705768703
348.103298377596
348.1033386822157
348.1033905395909
348.1034503582786
348.1035124126331
348.1035695434243
348.1036103153995
348.1036352159485
348.1036450924896
348.1036383532814
348.1036080741216
348.1030774876506
348.1030758102552
348.1030776700126
348.1030829523696
348.1030918760575
348.1031025277995
348.1031122712932
348.1031191938356
348.1031230321058
348.1031254202699
348.1031295675584
348.1031395245905
348.1031591944509
348.1031912275703
348.1032359201499
348.1032906834361
348.1033503010988
348.103407713637
348.1034521874564
348.1034809844426
348.1034938285101
348.1034894716151
348.1034630158575
348.1029827050103
348.102979572427
348.1029798111442
348.1029833372388
348.102990343791
348.1029991844091
348.1030074333332
348.1030130884529
348.1030154071283
348.1030153125686
348.103015397316
348.1030195070389
348.103031937983
348.1030561998846
348.1030936919721
348.1031428546766
348.1031990968234
348.1032555032535
348.1033020615898
348.1033336048085
348.1033489296166
348.103346507649
348.1033224575461
348.1028835176015
348.1028803112421
348.1028808723805
348.1028847360295
348.1028918629134
348.1029006163058
348.1029086883114
348.1029140366577
348.1029155971006
348.1029137671909
348.1029106439432
348.1029098837595
348.1029160009088
348.1029331419952
348.1029636491043
348.1030068862547
348.1030587624305
348.1031124572369
348.1031590230858
348.1031913243593
348.1032076822966
348.103206322498
348.1031838830361
348.1027802223341
348.1027781868054
348.1027804784271
348.1027862181153
348.1027949087799
348.1028048220531
348.1028137038334
348.1028194659945
348.102820814527
348.102817766565
348.1028120806788
348.1028072458883
348.1028078969894
348.10281868474
348.1028427268922
348.102880102051
348.1029271661919
348.1029772697341
348.1030224229008
348.1030542326155
348.1030707277227
348.1030697855151
348.1030479934626
348.1026739460714
348.1026738418589
348.1026785741885
348.1026867553923
348.1026975418024
348.1027090364948
348.1027189811678
348.1027252706845
348.102726439869
348.1027223058818
348.102714396673
348.1027060834839
348.1027021362706
348.1027075806041
348.1027260775786
348.1027581851473
348.1028005353161
348.1028465353143
348.1028884192965
348.1029180732887
348.1029331683385
348.1029317371464
348.1029104255996
348.1025657548926
348.1025680137434
348.1025750776779
348.1025853961045
348.1025978040434
348.1026103483183
348.1026207719202
348.1026269333369
348.1026273383524
348.1026217022471
348.1026114857185
348.1026001047339
348.1025925156054
348.1025940631737
348.1026086679007
348.1026370063285
348.1026756252988
348.1027176869212
348.1027553433775
348.1027812099341
348.1027930320082
348.1027895546994
348.1027681804888
348.1024574929941
348.1024613573284
348.1024694007468
348.1024800710452
348.1024922135753
348.1025039339117
348.102513139978
348.1025178325273
348.1025166291286
348.1025093108084
348.1024974224896
348.1024844602821
348.1024754227258
348.102475562963
348.1024885031821
348.102514451341
348.1025494459736
348.1025863468944
348.1026174710119
348.1026365769041
348.102642452344
348.1026356860023
348.1026160734318
348.102348467587
348.1023525553304
348.1023576602288
348.1023638505146
348.1023702273367
348.1023757188523
348.1023792087318
348.102379755158
348.1023768945998
348.1023710019899
348.1023635004686
348.1023567923931
348.1023537860105
348.1023569779186
348.1023674189148
348.1023840333424
348.1024037437787
348.1024226229648
348.1024376724372
348.1024470295707
348.1024516034096
348.1024523907818
348.1024487192215
273.2069181838382
347.6864324422702
350.1155148497187
347.4148292527685
273.2266309468177
274.6075119081607
305.36230194363
327.4380893420486
273.4663328964816
275.2534846618802
284.7383959257708
302.6668184425026
283.9066035220562
284.2216459987459
290.1947577636846
301.590803432525
295.4938357315484
295.9381419308449
301.5022747730932
310.5857817283569
308.3891014097454
309.8764646518498
315.2762515196686
322.8190252316615
322.2391108641404
324.4152826462523
328.92399919129
334.2796072953734
334.3855579207289
336.2491245354605
339.1309764256203
342.0881763234532
342.3172626107879
343.392195739213
344.7636847565554
346.0102652774347
346.1459498602652
346.5962716017959
347.0959029435076
347.5081994692905
347.5564585542768
347.7040158416366
347.850382118229
347.9619656664327
347.9730520668672
348.0136784561157
348.0498361059081
348.0755522232195
348.0770310723288
348.0866328580375
348.0946052888654
348.0998517150576
348.0996828092697
348.1017585512554
348.1033656934366
348.1043782124136
348.1040633112074
348.1045279665088
348.1048819162394
348.1051009147151
348.1047818251847
348.1049430212014
348.1050763948709
348.1051547320028
348.1048353300013
348.1049508608469
348.1050471966365
348.1050982488146
348.1047898895869
348.1048994391944
348.1049837523672
348.1050264737198
348.1047449253048
348.1048468118744
348.1049194866202
348.1049568253102
348.1047147152514
348.104801407632
348.1048600537621
348.1048913198456
348.1046936273094
348.1047600815883
348.1048039197762
348.1048279440752
348.1046732714117
348.1047177134793
348.1047471845172
348.1047635655481
348.1046449876757
348.1046691420778
348.1046863146785
348.1046957399751
348.1046046069896
348.1046116216597
348.1046188343379
348.1046226813052
348.1045497770837
348.1045436541506
348.1045435958927
348.1045434393338
348.1044816248414
348.1044654827044
348.1044600777597
348.1044572897008
348.1044001351777
348.1043770320889
348.1043682122369
348.1043639506958
348.1043071492662
348.1042791665423
348.1042681388341
348.1042632056903
348.1042022382078
348.104171968511
348.1041602442202
348.1041553429133
348.1040876597946
348.1040568402561
348.1040452769329
348.1040407843711
348.1039634571558
348.1039343567196
348.103924146185
348.103920459905
348.1038331338332
348.1038066511744
348.1037981045952
348.1037952429822
348.1036973870327
348.1036745841758
348.103668240005
348.1036663177549
348.103560138313
348.1035405062619
348.1035358834075
348.10353456005
348.1034216624353
348.1034048980221
348.1034018220934
348.1034009830321
348.1032848317067
348.1032694521416
348.1032669128644
348.1032660183542
348.103148459335
348.1031335875636
348.1031311726107
348.1031301149371
348.1030129614398
348.1029976346541
348.1029947230059
348.1029932133858
348.1028759597745
348.1028603119336
348.1028571255425
348.1028553949885
348.1027352908357
348.1027202334447
348.1027173406356
348.1027157685995
348.10259008467
348.1025780863089
348.102576867073
348.1025762986726
348.1024436981481
348.1024406144725
348.1024452630254
348.1024470626628
347.4817308309676
347.4749886596194
347.9464703065561
348.0796355283604
348.1019256326529
348.1048743395725
348.1054104060977
348.1056616506744
348.1058619738701
348.1060361142922
348.1061878082281
348.1063184706181
348.1064291504215
348.1065208198744
348.1065940194055
348.1066493997994
348.1066892267143
348.1067188688454
348.1067697365184
340.2421084852838
345.0744146412674
347.3551649822924
347.9688148856459
348.0858252928715
348.1029980462502
348.1052073971767
348.1056217715492
348.1058316148661
348.1060008070488
348.1061445992154
348.1062672890292
348.1063706166214
348.106455820085
348.1065237413608
348.106575279761
348.1066125659125
348.1066397702222
348.1066930350023
324.3247640128347
339.32851915495
345.8261936423576
347.678829506692
348.0457208061084
348.0987961545372
348.1048573499626
348.105584474757
348.1058047433351
348.1059617413396
348.1060942757038
348.1062069698014
348.106301629029
348.1063794469982
348.106441247612
348.1064879050734
348.1065217412053
348.1065460033146
348.1066019186686
323.3184524270186
338.4976517396581
345.4442165604934
347.5779430629163
348.0291209138554
348.0970163820041
348.1047440582694
348.1055820287662
348.105789571295
348.1059310442397
348.1060501836735
348.106151613005
348.1062367935722
348.1063066767859
348.1063619470149
348.106403452638
348.1064332002888
348.1064550167545
348.1065111432003
329.4425464845715
341.4453112090988
346.3385533657603
347.7635088450676
348.056607345405
348.100102700151
348.1050490260956
348.1056174242663
348.1057856562626
348.1059085831462
348.106013496449
348.1061032260945
348.1061786786555
348.1062404856386
348.1062891683947
348.1063254035596
348.1063514231296
348.106370358546
348.1064259757636
336.9449269446738
344.5515107051793
347.2607639451136
347.9539920202678
348.0846755439132
348.1032131558347
348.1053518446143
348.1056551816395
348.1057847769829
348.1058892978076
348.105980123484
348.1060582910158
348.1061241331277
348.10617797649
348.1062201368885
348.1062512526909
348.1062732815417
348.1062899967405
348.1063436051113
342.7817005267283
346.5993674723305
347.7801306309399
348.0512134587478
348.0983482050121
348.1047457731254
348.1055190506264
348.1056812619025
348.1057825562046
348.1058705707919
348.1059483376137
348.1060156992151
348.1060725320101
348.1061188863003
348.1061549212042
348.1061811591043
348.1061998079911
348.1062139724742
348.1062655101602
346.0724538750572
347.5902666417663
348.0037231253298
348.0896257038165
348.1034994077947
348.1053291534581
348.1055936634876
348.1056935556725
348.1057748180444
348.10584866259
348.1059147859819
348.1059723761413
348.1060210083473
348.1060605185197
348.106090910888
348.1061127316105
348.1061279674695
348.1061402689021
348.106188711848
347.4738811138187
347.9600999655837
348.0789742456046
348.1016024649942