/*--------------------------------*- C++ -*----------------------------------*\
| =========                 |                                                 |
| \\      /  F ield         | OpenFOAM: The Open Source CFD Toolbox           |
|  \\    /   O peration     | Version:  2206                                  |
|   \\  /    A nd           | Website:  www.openfoam.com                      |
|    \\/     M anipulation  |                                                 |
\*---------------------------------------------------------------------------*/
FoamFile
{
    version     2.0;
    format      ascii;
    arch        "LSB;label=32;scalar=64";
    class       volVectorField;
    location    "0.15";
    object      U;
}
// * * * * * * * * * * * * * * * * * * * * * * * * * * * * * * * * * * * * * //

dimensions      [0 1 -1 0 0 0 0];

internalField   nonuniform List<vector> 
2268
(
(0.04012797005343906 -0.01872861643781224 0)
(0.103989390677945 -0.01896708432750482 0)
(0.1752084862249842 -0.01910954092984467 0)
(0.2474772670874514 -0.01945928082933718 -3.983662332176659e-24)
(0.3212087824313363 -0.01996710956901365 -8.309924649877254e-24)
(0.3971144266828505 -0.02060739392148933 -4.403325302133276e-24)
(0.4756962594633426 -0.02137717760372345 -4.737184045687153e-24)
(0.5573722048371875 -0.02226832401848939 -1.036460746719301e-23)
(0.6425119031407235 -0.0232660958570047 -1.155595348977919e-23)
(0.7313787863894404 -0.02433702463807359 -6.577938329945619e-24)
(0.8241090712760469 -0.02544590402091026 0)
(0.9205872203720123 -0.02654925299437247 0)
(1.020384601727282 -0.02754321965664714 0)
(1.122386627366873 -0.02810519972670793 0)
(1.223688108957896 -0.02749127197747931 0)
(1.317865358633169 -0.02448964123546099 2.303322826089851e-23)
(1.39333590331416 -0.01763431268873877 3.014754231315324e-23)
(1.432706763091748 -0.005615993006895493 3.98595630899138e-23)
(1.413685683965683 0.01248426315075805 1.026810080025928e-22)
(1.310833999283464 0.03836775397911606 6.146432255585897e-23)
(1.105536281383999 0.07229456841314126 0)
(0.6930622855187406 0.1187556049363671 0)
(0.5231335796410498 0.1662827318541902 0)
(0.04022717147495498 -0.04902679981225465 0)
(0.1044032193009546 -0.04970284622193021 0)
(0.1759203502096376 -0.05022897922182959 0)
(0.248396774006051 -0.05122723489837792 -1.001681131294173e-23)
(0.3223528570268673 -0.05259604723726734 -2.074208638622436e-23)
(0.3984947401492916 -0.05428279633543807 -1.091789101969741e-23)
(0.4773207494023387 -0.05627647853852952 -1.16855921890014e-23)
(0.5592549516235311 -0.05854900780492496 -2.549443376869158e-23)
(0.6446814371449592 -0.06105110078187079 -2.842857785684842e-23)
(0.7338767401807194 -0.06368639285578222 -1.624311172804833e-23)
(0.8270013062928621 -0.06632495013938637 0)
(0.923951604618277 -0.06878848521276049 0)
(1.024285664229682 -0.0707624509166434 0)
(1.126906671744755 -0.07142508792786421 0)
(1.229042077434481 -0.06889201445654511 0)
(1.324578619513084 -0.05998712689115804 6.315411604346836e-23)
(1.402454362513503 -0.04063198683553877 8.520263880115396e-23)
(1.445878770647747 -0.006621058316779619 1.158140227019667e-22)
(1.432809662590045 0.04524179677118652 3.049126264471843e-22)
(1.337127740842105 0.1170213550335548 1.866908479924777e-22)
(1.139921658491567 0.2045510062415838 0)
(0.7249283636005608 0.3047287505092334 0)
(0.5414429566013959 0.3607011168249679 0)
(0.03992041604759866 -0.08245081788254589 0)
(0.1040031934762136 -0.08345526930911436 0)
(0.1753680856640155 -0.08449061683474733 0)
(0.2475891790236808 -0.08625002517303769 0)
(0.321317127342142 -0.08861606001977129 0)
(0.3972473088609751 -0.09153060264833247 0)
(0.4758746884414681 -0.09497635305713867 0)
(0.5576340548083689 -0.09890903460871828 0)
(0.6429331876590578 -0.1032516131803039 0)
(0.7320722549038671 -0.1078554636595629 0)
(0.8252560412160881 -0.1125055600630257 0)
(0.9224382944785133 -0.116900305775126 0)
(1.023262106339018 -0.1205341915393265 0)
(1.126797203529634 -0.1220922580193166 0)
(1.230554624438067 -0.1185146677337167 0)
(1.328839432328769 -0.1046138796172024 0)
(1.411177728445747 -0.07371150413288813 0)
(1.461463263785423 -0.01878750203746947 0)
(1.457965515659674 0.06637999524425929 0)
(1.373777197517305 0.1862247425774698 0)
(1.188617349384553 0.3359584207743422 0)
(0.7719800006941343 0.5053656715771336 0)
(0.5687245041429464 0.6144805123224858 0)
(0.03952351303345906 -0.1155367827926615 0)
(0.103435405013189 -0.1167777643534862 0)
(0.1745167431579185 -0.1182966013339576 0)
(0.2463515414723946 -0.1207552248313837 0)
(0.3197235215335349 -0.1240410472257844 0)
(0.3953153367971468 -0.1281015610494569 0)
(0.4736218807743333 -0.1329126649036944 0)
(0.5550938751256451 -0.1384139662766453 0)
(0.6401727774725231 -0.1445025804317276 0)
(0.729196944884162 -0.1509824751115141 0)
(0.8224419721936624 -0.157560358851782 0)
(0.9199669803877998 -0.1638204374679514 0)
(1.021589560465723 -0.1690964850498009 0)
(1.126666174528133 -0.171625406214091 0)
(1.233092004332549 -0.1672257173157908 0)
(1.335667935464561 -0.1487939017461544 0)
(1.424717413293751 -0.1071728771862178 0)
(1.485418507137079 -0.03243477152597014 0)
(1.496800650963477 0.08475607127578824 0)
(1.430980986771028 0.2517660337154129 0)
(1.263683305329777 0.4667554848494146 0)
(0.8453338314271497 0.7116794189511407 0)
(0.6098464198344298 0.8990976372954989 0)
(0.03902639688695396 -0.1479049662892803 0)
(0.1026530180389415 -0.1494296055716929 0)
(0.1733010672523196 -0.1515260481436706 1.331792719939829e-22)
(0.2446135362011078 -0.1547519087378566 1.357592701840706e-22)
(0.3174937990571038 -0.159019818125053 0)
(0.392612962686037 -0.1642913544283692 1.469787521765359e-22)
(0.4704716936983866 -0.1705391299221873 0)
(0.5515429223558539 -0.1776922761621118 -1.713022215183038e-22)
(0.6363123549809621 -0.1856308293448274 0)
(0.7251707815908937 -0.1941245344389951 -2.209927114136391e-22)
(0.8184887392242489 -0.2028211656099409 -2.626721200847217e-22)
(0.9164695251067898 -0.2112223340134304 0)
(1.019177350922302 -0.2185625426388331 0)
(1.12634469025258 -0.2226907156571465 0)
(1.236294271127416 -0.2183572926667344 0)
(1.344330207582174 -0.1966849328013112 9.988308457128379e-22)
(1.441732522763062 -0.1463366206401762 1.417587691922093e-21)
(1.515589541324704 -0.05471627202686208 0)
(1.547100720890127 0.09130521450164628 0)
(1.508372410265667 0.3046161172572333 0)
(1.365755697480219 0.5915468883260346 0)
(0.9445623462960122 0.9212438785753072 0)
(0.6618171279259345 1.214340958685558 0)
(0.03844006513001908 -0.1791337690133394 -2.126421536282844e-22)
(0.1016507586762391 -0.1808820754691876 -2.118739512225118e-22)
(0.1717174028893274 -0.1835379340483574 1.60456464803156e-22)
(0.2423877051908384 -0.1874932637343828 1.628906137277739e-22)
(0.3146570267894019 -0.1927076007302685 0)
(0.3891895114491742 -0.199159749326591 1.747043741130389e-22)
(0.4664983462130481 -0.2068199231130827 0)
(0.5470839430426253 -0.2156105618312659 6.724323403004233e-23)
(0.6314847631222565 -0.2254019702056942 2.998731995558552e-22)
(0.7201534666145052 -0.2359412732252436 -2.581695717271442e-22)
(0.8135710637570186 -0.2468357739167454 -3.058750445149532e-22)
(0.9121088227964848 -0.2575367569767765 0)
(1.016125022365967 -0.2672436003936624 -9.456630001814163e-22)
(1.125773897541442 -0.2734672505975908 -1.234495188380476e-21)
(1.239797514229776 -0.2699305940209784 -1.110922913163729e-21)
(1.353990031579926 -0.2461536744992809 -3.868101645377288e-22)
(1.460746577188239 -0.1890878076652935 1.662633931145589e-21)
(1.549655550602737 -0.08418364459854745 0)
(1.606836435218064 0.08452547222181903 0)
(1.606360008398739 0.338960450596443 0)
(1.493034697047642 0.7068102194801522 0)
(1.058243340639466 1.136510791295194 0)
(0.7166587910661913 1.568658884632259 0)
(0.03784197059892619 -0.2113394555512062 -2.771337154387382e-22)
(0.1005438799687259 -0.2131028295822533 -2.775774950066389e-22)
(0.1698879282547655 -0.2161830790429291 0)
(0.2398191138445403 -0.2207298698845147 0)
(0.3113782489987089 -0.2267713904130546 0)
(0.3852305067462354 -0.2343073576796499 0)
(0.461907478083313 -0.2433067134022571 0)
(0.5419389848922438 -0.2536893232034205 3.56142433043631e-22)
(0.6259212649692928 -0.2653233103552823 3.9531533762885e-22)
(0.7143722687877654 -0.2779443331371846 0)
(0.8078929559722117 -0.2911405234876573 0)
(0.9070370787312013 -0.3043471374091126 0)
(1.012475019885222 -0.3167815406965511 -1.187061206651454e-21)
(1.124758872417923 -0.3256104282647797 -1.520573248648338e-21)
(1.242968783500444 -0.3234759637666615 -1.339599790240208e-21)
(1.363355105516875 -0.2983680252733587 -1.828514861285972e-21)
(1.479497420605508 -0.2359569729927317 0)
(1.583174809939063 -0.1207458224082598 0)
(1.668376627579536 0.06728980929842254 0)
(1.718201766054094 0.349242046882947 0)
(1.632785371404243 0.7946992297844072 0)
(1.153756405836679 1.34902216219684 0)
(0.7581236519135885 1.963579759798061 0)
(0.03729788702558126 -0.248787465192806 0)
(0.09943509583701726 -0.2506733778533728 0)
(0.167894844300273 -0.2543247970543842 0)
(0.2369922015192578 -0.2596538305051481 -3.484999668571559e-22)
(0.3077358782933162 -0.266757636489341 -7.21898571611275e-22)
(0.3808039808286117 -0.275661875786965 -3.7865191279883e-22)
(0.4567527818548326 -0.2863440964031949 -4.034115709813297e-22)
(0.5361417541053357 -0.2987338244420318 -4.377178916819672e-22)
(0.61963042149751 -0.3127143470885237 0)
(0.7078029893176929 -0.328028445992545 0)
(0.801391303657906 -0.3442826262139816 0)
(0.9011515542137589 -0.3609602934429744 0)
(1.00807366974662 -0.37736411943075 9.417651911649384e-22)
(1.12303263481137 -0.3902284586946751 1.189912114911808e-21)
(1.245309814603055 -0.3909293512140162 1.54634098063738e-21)
(1.371582911810509 -0.3660844959257341 4.155980733023535e-21)
(1.496632828591088 -0.3013370766336417 2.932101707169814e-21)
(1.61439580061816 -0.1837109395738288 4.428155370659276e-21)
(1.71956796656401 0.003592391420184471 1.441686601567876e-20)
(1.811870954896273 0.2815425248453198 1.01148368495142e-20)
(1.738371098747806 0.7905925301830746 0)
(1.144882623624517 1.542081953024671 0)
(0.7719116299383616 2.372848761224496 0)
(-0.07259627080405978 0.02556791956080924 0)
(-0.147448639156242 0.009323733946652649 -4.459998811339716e-21)
(-0.1569724355552688 -0.0005428571819257933 -6.557918289960144e-21)
(-0.1383046282446262 -0.006467033106061868 -3.003719896194246e-24)
(-0.100504715004423 -0.008009596226366574 -3.636640298264082e-21)
(-0.06322819199678788 -0.007294168312011704 -3.356589231015747e-21)
(-0.03096132535793298 -0.005779084768209523 0)
(-0.006396484140031565 -0.004368915164679577 0)
(0.01084424927681141 -0.00290522997672012 -6.545673847296603e-21)
(0.02220210482521963 -0.001742232105082166 -1.826266917504603e-21)
(0.02864259657711903 -0.0008554081684194912 3.039179590354721e-21)
(0.03132989964319235 -0.0001453990397867006 2.50988344516905e-21)
(0.0312186742495782 0.0003735979151296354 2.050590763426141e-21)
(0.02903330904544855 0.000751255254059833 0)
(0.02534765099838338 0.001022720796730732 0)
(0.02059709315467996 0.001213487350446776 1.306954231407525e-24)
(0.01511386357196914 0.001341773198706306 -1.353242467185274e-21)
(0.009171825310114932 0.001417053183710094 -8.03254360166346e-22)
(0.00315121494018876 0.001480698545877404 -2.275543326094185e-24)
(-0.07978234393236351 0.076790394626747 0)
(-0.1577068030619826 0.02753614130068219 -4.657471928540694e-21)
(-0.1609348837575196 -0.003328857382153173 -6.785434222067162e-21)
(-0.1364415893057263 -0.02098306622249799 -8.460932626049546e-24)
(-0.09376719796554395 -0.02511376720314788 -3.66400619058788e-21)
(-0.05352715359105764 -0.0226189481708604 -3.364293492712105e-21)
(-0.01997685386772477 -0.01777696912573792 0)
(0.0048623500620698 -0.01300909092536275 0)
(0.02184294989106911 -0.008474017988186752 0)
(0.03243839343146165 -0.004842273189347022 3.632859232937683e-21)
(0.03793521079379686 -0.002055450616328601 3.024407014884434e-21)
(0.03956876919755805 7.137013603321449e-05 2.49679067270488e-21)
(0.03834087238757427 0.001635259193206582 2.03863241292795e-21)
(0.03503517587072262 0.002769922589128916 0)
(0.03023629354302017 0.003580954238501005 0)
(0.02438472503270299 0.004147587909219149 3.881612938006506e-24)
(0.01781206870922416 0.004526827344505192 -1.34326285830714e-21)
(0.01078515363973031 0.004752730895363443 -8.03708887347289e-22)
(0.003658221456212977 0.004717705539659021 -6.725913845932255e-24)
(-0.09488574631479037 0.1351169916032957 0)
(-0.1815479392890571 0.04516516141348591 -2.523612241023429e-21)
(-0.1754784598299671 -0.009276278484937252 -3.603601566406502e-21)
(-0.142730699450433 -0.03818965704623752 0)
(-0.09410508562899013 -0.04367342230835811 0)
(-0.05121351347908094 -0.0385988176986668 0)
(-0.01689519288560239 -0.03001564762214948 0)
(0.007934483847787924 -0.02146371273517553 0)
(0.02462042039529179 -0.01383849395515164 -6.445856241768283e-21)
(0.03476332204479788 -0.00771718596359412 1.799328042023647e-21)
(0.03982183530278156 -0.003016191533867704 5.989523007580223e-21)
(0.04107317125351377 0.0004922963714602201 0)
(0.03952407568027028 0.003076683294175879 0)
(0.0359490305841805 0.004949261497005966 0)
(0.0309262236840098 0.006284158103341562 0)
(0.02488670914551585 0.007214164590654683 0)
(0.01815235374966015 0.007835587427150891 -1.331190888201331e-21)
(0.01098312021093785 0.008212394657767167 -7.87610959897557e-22)
(0.003721316864849343 0.008176732776638627 0)
(-0.1193766763515924 0.2056524614821884 0)
(-0.2199037048681645 0.06194528047496076 -3.965191912540141e-21)
(-0.197985921587063 -0.02065190804860591 -4.450333202007929e-21)
(-0.1518104144322728 -0.05957384488966178 0)
(-0.09429162450075032 -0.06439295800873515 0)
(-0.04771404316232156 -0.05547262842011291 0)
(-0.0124902762517409 -0.04237794730071802 0)
(0.01208358264844426 -0.0298052009749548 0)
(0.02813790230387149 -0.01895921980235823 -1.274465479406037e-20)
(0.0375408523930973 -0.01034534200229817 -7.097444022691719e-21)
(0.04193595714425218 -0.0037810280224258 2.950288524805825e-21)
(0.04264904309290968 0.001101144875586161 2.430605112355808e-21)
(0.04068148635177089 0.004679999278737652 1.982031128513292e-21)
(0.03678596927460796 0.007265191068629176 0)
(0.03152010407746578 0.009103706269634851 0)
(0.02529545787850375 0.01038210019061724 1.065504837488377e-22)
(0.01841712571266316 0.01123536063100299 -5.55265458550613e-22)
(0.01113164521759101 0.01175440614807235 -3.871815532142184e-22)
(0.003768934770049728 0.01169709010682428 0)
(-0.1531044059201563 0.2933917261142381 0)
(-0.2721375140533082 0.07601076179610916 -3.520372661623846e-21)
(-0.2265267110878419 -0.04076870143186449 -5.103334962685585e-21)
(-0.1617770779959578 -0.08711377892239015 -9.337363913938638e-23)
(-0.0931111676803079 -0.08798545934473025 0)
(-0.04227333804677787 -0.07329960891132231 0)
(-0.006192827174386838 -0.05487705203717155 0)
(0.01778303990859396 -0.03787257388068585 0)
(0.03285073166638923 -0.02369015260423522 -6.273758378794237e-21)
(0.04120295835751456 -0.01260959750394029 -1.740854133810808e-21)
(0.04469258284510039 -0.004246643640853666 2.890508363153705e-21)
(0.04468463085843971 0.00194489115130414 4.755262897692223e-21)
(0.04216310349181926 0.006462732220768597 1.937384272505784e-21)
(0.03784880704485337 0.009716377184894244 -1.555948616575463e-21)
(0.03226883991580969 0.01202525224125455 0)
(0.02580754481688542 0.01362809594391935 1.356664183305778e-22)
(0.01874733141629584 0.01469679276483855 2.521412716471007e-22)
(0.01131557909429477 0.01534705237323753 1.199247182300485e-22)
(0.003827488038575202 0.01526304402937847 0)
(-0.1909837382757696 0.4025209175114424 0)
(-0.3326332162255229 0.08459244172939977 -2.562869998464089e-21)
(-0.2547625659827774 -0.07046361268120964 -4.180747899527642e-21)
(-0.1684310159585241 -0.1208036252071021 2.370083647238097e-23)
(-0.08855672724636758 -0.1148604089057307 0)
(-0.0340911558073233 -0.09193763147429652 0)
(0.002264875829154859 -0.06734324354450062 0)
(0.02518575210721135 -0.0454724563637522 5.862441954161495e-22)
(0.03878947186331604 -0.02788758154399712 5.282871203754879e-22)
(0.04574978638290405 -0.01439917125602632 6.792898507307001e-21)
(0.04808667316782041 -0.004322655691628647 5.224828119561263e-21)
(0.04717755750639815 0.003092062463960557 4.271899580724629e-21)
(0.04396948167611524 0.008474531870309507 1.88193187655086e-21)
(0.03914061266654385 0.01233853574425411 -1.51121267953479e-21)
(0.03317676498847651 0.01507434921740287 0)
(0.02642741521377561 0.0169704121798207 0)
(0.01914659189250931 0.01823308604167916 1.523748503332088e-22)
(0.01153769488190273 0.01900082436504751 3.382292421858844e-22)
(0.003897996880099923 0.01888523931420279 1.885675224186127e-22)
(-0.2251160531571948 0.5296481003096886 0)
(-0.39789903625247 0.07995132529621934 -1.241512000720786e-20)
(-0.2734103667429897 -0.1081332574708142 -1.105452859030675e-20)
(-0.165976265355629 -0.1595974413574088 8.777925242781205e-23)
(-0.0776898153694259 -0.1433918067485256 0)
(-0.02174062742674871 -0.110778432465643 0)
(0.01333614683896572 -0.079155086047422 0)
(0.03439634103290688 -0.05227711929700809 7.017526255737248e-22)
(0.04595283998415074 -0.03131576787538224 6.254250907234791e-22)
(0.05114798651282503 -0.01553441551637805 3.291694374760235e-21)
(0.05208014692172244 -0.003889148335632474 2.248178598174176e-21)
(0.05009106667326159 0.004618085886569387 4.051890185494152e-21)
(0.04607106731934558 0.01076896307738837 3.631779942069393e-21)
(0.0406391620436134 0.01517049226125785 0)
(0.034227766784429 0.01827935875922136 0)
(0.02714382885005439 0.02042995604946927 0)
(0.01960749708859753 0.02185993053957946 0)
(0.01179401907930607 0.02272797507233105 2.255672274226011e-22)
(0.003979806302710033 0.02257343662322872 2.201051328615027e-22)
(-0.2717718061399351 0.7849236185459133 1.057577347975171e-20)
(-0.4747873540861136 0.1270898915046686 -1.281304277938779e-20)
(-0.2768722204401922 -0.1768694850600531 -1.428565417778795e-20)
(-0.1504777532060943 -0.2137239207602592 0)
(-0.0566638228453856 -0.1770880033413835 0)
(-0.002942841203492339 -0.1309512928219179 0)
(0.02830460761059583 -0.09024271383735208 0)
(0.04580194583747665 -0.05816052752318511 0)
(0.05439730599935052 -0.03400440082751984 -5.770752241724704e-21)
(0.05733619227706032 -0.01612943602479961 -1.58299054699169e-21)
(0.05659416265447573 -0.003081122902125785 2.611948897363906e-21)
(0.05336672355516293 0.006396926153961971 2.138826876617163e-21)
(0.048426471525917 0.01322089718278319 1.740388978277806e-21)
(0.04231347651005789 0.01808828243415853 0)
(0.03539906624333073 0.02151829019488908 -3.190408301861655e-22)
(0.02794054450389722 0.02388720866587755 -2.904556234594556e-22)
(0.02011900735258283 0.02546050008422592 -5.768173447568763e-22)
(0.01207813333989788 0.02641446536112762 -5.989819605704262e-22)
(0.004068632841931738 0.02621903721424515 -2.508650415390067e-22)
(0.03667573100758161 -0.2890696451627675 0)
(0.09809302291979222 -0.2914858441735375 0)
(0.1654513518896845 -0.2958832555724434 0)
(0.2335718003264878 -0.3022974733213555 -3.723610275443241e-22)
(0.3033402955938035 -0.31080721393232 -7.668472121196772e-22)
(0.3754605899440845 -0.3214557941283483 -3.998932452222824e-22)
(0.4505205261111404 -0.3342449820550793 -4.446319460996677e-37)
(0.5291100999843046 -0.3491267431538014 3.491715364139646e-37)
(0.6119627555725221 -0.366021795218637 0)
(0.6997302047117439 -0.384698892401693 5.735113687211987e-22)
(0.7932861806617402 -0.404823975846507 6.689233758281024e-22)
(0.8936183604251192 -0.4260150751027321 -4.016126911975067e-22)
(1.002077866911841 -0.4477510826164542 4.959429284670583e-22)
(1.119836038816805 -0.466208087069976 1.25806964666043e-21)
(1.246237795540131 -0.4713569851996212 2.461711803649074e-21)
(1.37820815362584 -0.4492737463124613 5.555584017940232e-21)
(1.511508898581024 -0.3897188353896868 3.136339131301758e-21)
(1.641440574869101 -0.2935515746880293 4.430729897599822e-21)
(1.750523309396054 -0.1648320219608018 1.150753931881826e-20)
(1.826489979514063 0.1195968549818149 1.017605711066135e-20)
(1.755892480810746 1.109069526133496 -3.254972793005963e-20)
(1.112602257576738 1.929120928354903 -1.598121653204987e-20)
(0.86459220867744 2.847006718150916 0)
(0.034930762862617 -0.3590120607885821 0)
(0.09440600761734 -0.3622701689768166 0)
(0.1592992331912813 -0.3677471945864625 0)
(0.224969791931162 -0.3758459375052605 0)
(0.2922985533378591 -0.3866256328935239 0)
(0.3619663408134724 -0.4001587929251376 0)
(0.434592273156486 -0.4165001380906423 4.281956225600587e-22)
(0.5107956683781252 -0.4356589201285235 4.582447730249407e-22)
(0.5914304066356083 -0.4576501761670369 0)
(0.6772088127332656 -0.4823198658054577 5.645500689748909e-22)
(0.769184281624652 -0.5095000866624073 6.547103063875236e-22)
(0.8686984204532959 -0.5391555792107006 -3.912504883742114e-22)
(0.9776590449708503 -0.5710675483515109 -4.801150488491342e-22)
(1.097290812662715 -0.5999026288635645 0)
(1.225349009972507 -0.6130629608827878 7.907282263432149e-22)
(1.35442949066947 -0.5983183739659366 1.080296150734091e-21)
(1.472155319649576 -0.5563176509795101 0)
(1.571064059911998 -0.4902093530897746 0)
(1.675117333150485 -0.3592180150939335 0)
(2.142087736425874 0.5059547362938539 0)
(1.653739453506762 2.725746257364986 -6.038772394007121e-20)
(1.079778017284087 2.401281217038637 -3.247954385066416e-20)
(0.8849158688231142 2.896178522264294 0)
(0.03303897243489312 -0.4210642552504325 0)
(0.09019885888824908 -0.4248765090600254 0)
(0.1521325908418317 -0.4312510646837197 8.294421221012422e-22)
(0.2148145321906755 -0.4407414098470185 8.382392034725977e-22)
(0.2791351834540897 -0.4534624183634179 0)
(0.3457388592933029 -0.4695310499057462 0)
(0.4152613783840305 -0.4890614907598273 0)
(0.4883198918037662 -0.5121381015918631 0)
(0.5658861097045019 -0.5388982965057154 0)
(0.6486415155309102 -0.5692909508145315 0)
(0.7377351508318922 -0.6033978072751303 0)
(0.8348915559561291 -0.6416314788207904 0)
(0.9423993831336853 -0.6837241427554644 0)
(1.060115168435713 -0.7218203294364604 0)
(1.180216129015612 -0.7419278284474438 0)
(1.287015678294186 -0.7365613804916478 0)
(1.378508356351137 -0.7073758427308239 2.246720260919273e-21)
(1.491682184045692 -0.6423693792928541 3.794832971847746e-21)
(1.752721250126178 -0.567282126900028 0)
(1.257593534486418 0.779833778395252 -5.34896818426024e-20)
(1.295089426526923 2.229122844492016 -3.894555980727109e-20)
(1.345145920781163 2.950465176471487 0)
(0.9329692380697366 2.75697259083869 0)
(0.03090499888692793 -0.4801325375767041 0)
(0.08523508580764787 -0.4845558023313026 0)
(0.143689884930997 -0.4918996785410367 2.161050989042283e-21)
(0.2028428486715042 -0.502829975721828 2.17292683979083e-21)
(0.2635650875946498 -0.5175276851476794 0)
(0.3264526412483523 -0.5361651268259749 0)
(0.3921409402153154 -0.5589264529228979 0)
(0.4612054041925653 -0.5859872771600297 0)
(0.5347395477658737 -0.6176264996163735 0)
(0.6132606907205264 -0.6539001272054008 0)
(0.6979544688338621 -0.695220180916409 0)
(0.791182411345455 -0.7423979970774018 0)
(0.8951442344015227 -0.794242003109553 0)
(1.005042032598645 -0.8399241678237267 0)
(1.102781492203398 -0.8675436587766209 0)
(1.182733387189307 -0.8712691372965605 0)
(1.285902378560826 -0.8467675425381178 2.01705823194626e-21)
(1.529873310259789 -0.7574785639505262 3.085056583905008e-21)
(1.083368607235588 0.1305913221004021 0)
(0.6453351206888064 0.9041549867775696 -5.930514409302019e-20)
(0.7830455155979323 1.860807237887516 -5.608654979420971e-20)
(1.098287817231014 2.607158198094761 0)
(1.254816000016546 2.56823370726374 0)
(0.02857255083892725 -0.535579737629853 0)
(0.07957926744043139 -0.5405591087614802 0)
(0.134069063461669 -0.5487807448864122 1.310448729841754e-21)
(0.1891867119885709 -0.561029748881122 1.309997619110986e-21)
(0.2457486931642502 -0.5775509593713742 0)
(0.3042893142044305 -0.5985757802653258 0)
(0.3654246029842851 -0.624363543663002 0)
(0.4296478655713308 -0.6551909349792987 0)
(0.4981929784917304 -0.6914803088949834 0)
(0.571224342046265 -0.7333898566157021 0)
(0.6500452328852344 -0.7817471110748178 0)
(0.7382265557975412 -0.8374576778253466 0)
(0.8360566301565918 -0.8973183675084725 0)
(0.9286426721391411 -0.9491229444440302 0)
(0.9958587894026995 -0.9843860938191589 0)
(1.078159422074463 -0.9920043762095855 0)
(1.260300576260274 -1.014814384209796 0)
(0.960569781061687 -0.2409934798023132 0)
(0.4497047790982784 0.4057615858712163 0)
(0.2262792517436359 0.9755440630660569 -1.316262533368194e-20)
(0.3688788185209974 1.593047522146744 -1.835968139570373e-20)
(0.7083197593297074 2.194488875473759 0)
(1.100083061641127 2.531445971726629 0)
(0.02607475279403782 -0.5869655877199574 0)
(0.07329942188806597 -0.592442259422022 0)
(0.1233839664476834 -0.601430164881705 0)
(0.1740011006110225 -0.6148459170529208 -2.984262564227353e-21)
(0.2258803758913053 -0.6329929084984274 -2.957420936366856e-21)
(0.2794802586231031 -0.6561614962094137 0)
(0.3353759855191865 -0.6846871184515491 0)
(0.3939440876862056 -0.7189545947522975 0)
(0.4565871911868282 -0.759517572230058 0)
(0.522860755769051 -0.8066538464558519 0)
(0.5945949532338919 -0.8616580981696021 0)
(0.6771053495676341 -0.924910767578163 0)
(0.7638863975118313 -0.9907500089891181 0)
(0.8276899036922226 -1.048354464073804 0)
(0.886282055154713 -1.085987865567753 0)
(0.9924558845498719 -1.118101378215597 0)
(1.060980660490814 -0.5189117144124393 0)
(0.3827992405228381 0.1510707341282639 0)
(0.05806895179883427 0.6649486982657945 1.168352501792059e-21)
(-0.05186847278737973 0.9962863710860176 8.765799685671239e-21)
(0.07850319828251914 1.35260516793081 0)
(0.3002274962821183 1.772530569308817 0)
(0.7748598035598332 2.30299508910483 0)
(0.023447839430012 -0.6339070287097288 0)
(0.06648628259414419 -0.6398077029659335 0)
(0.1117905625709283 -0.649423626251624 0)
(0.1575034488046429 -0.6638110677361855 -2.837706740141329e-21)
(0.2042408012575973 -0.6833241502836526 -2.777514664860561e-21)
(0.2523711903736214 -0.7083096814514199 -3.081749438795278e-21)
(0.3024049284796069 -0.7391777112364615 -2.960810553136093e-21)
(0.3545793540947836 -0.7764280443975562 0)
(0.4104816323222427 -0.820728587640118 0)
(0.4687740019467046 -0.8725557748177013 -2.408849737033643e-21)
(0.5327609711590497 -0.9335873223029479 -2.14573906439543e-21)
(0.6088868334971873 -1.003063287690982 0)
(0.6763674510025335 -1.07404493965977 2.390998496514396e-21)
(0.7151170401784733 -1.134078561459118 5.099614642092631e-21)
(0.7891928017275629 -1.171737020562033 -2.110800321403295e-21)
(0.9140148458942412 -1.121482721503863 0)
(0.3933982204666572 -0.175628170296154 0)
(-0.05105101551034527 0.5076992956600612 0)
(-0.1665998911091772 0.7845175592346544 6.074266388993227e-23)
(-0.2134221519093064 0.9690697801953453 -3.802406744684e-22)
(-0.1108983166220762 1.181879038808337 3.991302933770028e-21)
(-0.02682901628362901 1.416899271011696 0)
(0.432605198902929 1.995273810993305 0)
(0.02073467520110016 -0.6761014319454525 0)
(0.05925683099302793 -0.6823367585482749 0)
(0.09949023203937678 -0.6924174933032455 0)
(0.1399787388685796 -0.7075409533417077 0)
(0.1812045535041227 -0.7281009492199616 0)
(0.2234318206083582 -0.7544961328822761 -2.755825853208855e-21)
(0.2670785886767149 -0.7872064165848592 -2.556795803231425e-21)
(0.3122337744271194 -0.8268530133815072 0)
(0.3606287196833674 -0.8742117228859601 0)
(0.4098424339462164 -0.9301132747172814 -1.509001789891783e-21)
(0.4660154729530944 -0.9963168821289277 -9.035448131505347e-22)
(0.5332370233114733 -1.071343404726638 0)
(0.572742146856367 -1.148900653005597 3.921032082174985e-22)
(0.6176028509307746 -1.205140979147499 -1.671056552578581e-21)
(0.7117791137079477 -1.25522070919197 -1.658325876254122e-20)
(0.6972004452280915 -0.6234623141700353 0)
(-0.04258854313155605 0.3213470407314893 0)
(-0.2398702715289732 0.6736561592604373 0)
(-0.2811583445630528 0.8222415695940523 0)
(-0.292631638592441 0.941418504286738 -1.582715227707596e-21)
(-0.2152847534469785 1.076249350234265 6.962215073481025e-22)
(-0.1892251790850935 1.202863386640174 0)
(0.1709569601456098 1.662460973998548 0)
(0.01798804902008681 -0.7133206920486537 0)
(0.05176041837093678 -0.7197852095580637 0)
(0.08673985611287408 -0.7301461976773934 0)
(0.1217958761489211 -0.7457340384318359 0)
(0.1572651152650459 -0.7669672581375264 0)
(0.1932939089813346 -0.7942852845561238 0)
(0.2301800342816795 -0.828229262473855 0)
(0.2678593557670128 -0.8695382487768073 0)
(0.3080733514701846 -0.919105506085909 0)
(0.347389958325207 -0.9782719873523851 0)
(0.3956649871495834 -1.048433601316491 0)
(0.4482109547200515 -1.12987346448774 0)
(0.4615889307704162 -1.214565762188587 0)
(0.5274175509495197 -1.268800872784295 0)
(0.6155170924190858 -1.266598116365952 0)
(-0.04234512742514739 -0.09935560822894274 0)
(-0.2476462566018111 0.5410169617904271 0)
(-0.3217089221670466 0.7302001828816687 0)
(-0.327519527093396 0.829296827791118 0)
(-0.3164658349333567 0.9132106424782825 0)
(-0.2536837340626048 1.002232082297017 0)
(-0.2263797935405243 1.075415042550433 0)
(0.02019092925421625 1.372125786853872 0)
(0.01527545295115988 -0.745374558577071 8.902360045016623e-38)
(0.04419027412969009 -0.7519491802963836 0)
(0.07387221440783226 -0.7623958400819956 0)
(0.10343959511281 -0.7781571456264371 0)
(0.1330865749249793 -0.7996569903451356 0)
(0.1628286727433163 -0.8273680416067586 0)
(0.1928234984208098 -0.8618685213910222 0)
(0.2228506234769443 -0.9040040671222224 0)
(0.254462636592717 -0.954797833767804 0)
(0.2836177984486275 -1.016124620575802 0)
(0.3229994859846039 -1.088703510605584 0)
(0.3544752996585822 -1.178145321823925 0)
(0.3569236468158643 -1.270591181228585 0)
(0.4316184454141067 -1.321409044218888 0)
(0.4702652621441641 -0.7737259175112658 0)
(-0.2338866913304119 0.2348075768932745 0)
(-0.2843941733829962 0.6174770819654278 0)
(-0.3357578242811227 0.7453989985007057 0)
(-0.3294049033126298 0.8186827668883853 0)
(-0.3074958248059255 0.8799335298517417 0)
(-0.2525783887240568 0.9398083677881797 0)
(-0.2113272062557633 0.9834568176160466 0)
(-0.0439532694330393 1.145044458242415 0)