/*--------------------------------*- C++ -*----------------------------------*\
| =========                 |                                                 |
| \\      /  F ield         | OpenFOAM: The Open Source CFD Toolbox           |
|  \\    /   O peration     | Version:  2206                                  |
|   \\  /    A nd           | Website:  www.openfoam.com                      |
|    \\/     M anipulation  |                                                 |
\*---------------------------------------------------------------------------*/
FoamFile
{
    version     2.0;
    format      ascii;
    arch        "LSB;label=32;scalar=64";
    class       volScalarField;
    location    "0.3";
    object      alpha.water_0;
}
// * * * * * * * * * * * * * * * * * * * * * * * * * * * * * * * * * * * * * //

dimensions      [0 0 0 0 0 0 0];

internalField   nonuniform List<scalar> 
2268
(
1
1
1
1
1
1
1
1
1
1
1
1
1
1
1
1
1
1
1
1
1
1
0.9998355255662363
1
1
1
1
1
1
1
1
1
1
1
1
1
1
1
1
1
1
1
1
1
1
0.9998740370637271
1
1
1
1
1
1
1
1
1
1
1
1
1
1
1
1
1
1
1
1
1
1
0.9997963625049101
1
1
1
1
1
1
1
1
1
1
1
1
1
1
1
1
1
1
1
1
1
1
0.9993631462521259
1
1
1
1
1
1
1
1
1
1
1
1
1
1
1
1
1
1
1
1
1
1
0.9992872334056073
1
1
1
1
1
1
1
1
1
1
1
1
1
1
1
1
1
1
1
1
1
1
0.9992865563329785
1
1
1
1
1
1
1
1
1
1
1
1
1
1
1
1
1
1
1
1
1
1
0.9993194149344877
1
1
1
1
1
1
1
1
1
1
1
1
1
1
1
1
1
1
1
1
1
1
0.9998812972388637
-3.724068369756484e-33
-5.45874451686024e-32
-3.359004880830933e-31
-1.331799169868329e-30
-2.082707899228965e-30
5.955282989777905e-32
3.762659423988235e-31
2.439618137533581e-32
4.175792543347886e-35
-3.828061944519329e-35
-1.055286543827527e-35
-1.530171522871671e-36
-1.560792860656574e-37
-1.231570575666643e-38
-7.489248545895183e-40
-3.388415480327667e-41
-1.068591262175471e-42
-2.080505340037743e-44
-1.861647236761357e-46
-4.426220205584067e-31
-4.138346792852805e-30
-1.558243717809337e-29
-1.308453382811739e-29
1.004580777224671e-28
7.490143232651431e-27
7.971515417054805e-26
7.101958126191518e-27
1.522073334068937e-29
9.316538208232094e-34
-2.329087732413516e-35
-1.241306585981265e-35
-2.222857002985183e-36
-2.630457731782718e-37
-2.217377822219804e-38
-1.328642616091492e-39
-5.390231871008926e-41
-1.323123735928466e-42
-1.470735819224224e-44
-1.595130183328728e-29
-1.066233578477757e-28
-4.058267935175778e-29
6.681115151958226e-27
2.62602560154973e-24
6.770931950523092e-23
7.837416535536492e-22
1.897404675625211e-22
2.005400976817949e-24
3.349106743953772e-28
2.134726632054821e-33
0
-6.249876011330982e-36
-1.32795404978728e-36
-1.681253367874828e-37
-1.390787675584985e-38
-7.369395535137463e-40
-2.269941449743493e-41
-3.072883655466027e-43
-1.919006206761264e-28
-4.607041381767857e-28
1.277204751353683e-26
3.477512022720778e-23
3.590790753933211e-21
4.410509348609253e-20
2.249511983903451e-19
8.250154383932584e-20
3.453834545588024e-21
6.566495088050608e-24
2.43362742605705e-28
1.685148814517414e-33
-7.123544381624636e-52
-2.544117003791172e-36
-6.075114803174544e-37
-7.545403978326746e-38
-5.488771125227444e-39
-2.19372040719742e-40
-3.70549374438545e-42
-8.803908773937532e-28
8.658205047554998e-28
7.755834283182572e-23
4.680115616007986e-20
3.829730188009199e-18
1.153648732076286e-16
1.305292423215478e-17
2.379996754523044e-18
1.749056526703048e-19
1.910461986793408e-21
1.188079994923869e-24
2.25770732934156e-29
3.1183060204426e-34
9.208509665239526e-53
-1.15001830287432e-36
-2.537100092359078e-37
-2.670061867856315e-38
-1.429767286336468e-39
-3.083669815848008e-41
3.751709747126828e-27
6.595917029450012e-28
6.442475521953117e-19
1.468845441830166e-16
4.876858138289777e-15
7.114932238667988e-14
1.777200600811065e-14
6.388730310295489e-17
1.565211634333174e-18
2.257507192285784e-20
9.492727700286374e-23
3.198654880145462e-26
6.342205562767972e-31
9.890836210712955e-36
-2.347337800038868e-36
-9.167892180845549e-37
-1.315983023742035e-37
-8.785436704548971e-39
-2.270927450485574e-40
4.091896687959856e-27
1.969522005349653e-20
1.990909698094926e-20
4.670135925693804e-15
2.223275682305298e-13
1.494091301429788e-12
1.759577300360218e-12
1.260022364489806e-13
5.232125475120375e-17
3.550359976245509e-20
3.800333211872751e-22
9.904446560391879e-25
2.559347520247614e-28
1.05722915758126e-32
3.738709016195232e-50
-2.013403244738287e-36
-5.020995735644793e-37
-4.452506328503275e-38
-1.387651659800507e-39
0.02963876261176964
0.008153325628037713
0.0002024746720580096
4.269645098194405e-15
6.216796478855341e-13
3.061209524407776e-12
1.07851875891862e-11
7.992163701356822e-12
6.805116335741e-23
5.800184177099918e-25
6.981139748900842e-25
5.800431647148214e-25
1.168256368960995e-22
1.586626376249245e-23
5.745616627429886e-26
1.281594731262119e-30
3.647684407894984e-36
-2.008776703842277e-38
-2.644813774849426e-39
1
1
1
1
1
1
1
1
1
1
1
1
1
1
1
1
1
1
1
1
1
1
1
1
1
1
1
1
1
1
1
1
1
1
1
1
1
1
1
1
1
1
1
1
1
1
1
1
1
1
1
1
1
1
1
1
1
1
1
1
1
1
1
1
1
1
1
1
1
1
1
1
1
1
1
1
1
1
1
1
1
1
0.9978971760901844
0.9819384449764577
0.9525012792156236
0.919158716216487
0.895973136289111
0.9112096956018356
0.9598801905856105
1
1
1
1
1
1
1
1
1
1
1
0.9936205966155958
0.9651314059016263
0.905892725020025
0.8139776340729328
0.6864737297792435
0.5237483091344225
0.377323758858849
0.2612287000377956
0.1793803455341673
0.1403632248206171
0.1540558336868707
0.1964983743977533
0.2786244376700591
0.4166665973594046
0.592237904193719
0.9498287873276009
0.9450654037770371
0.9314890125685245
0.9070137978036413
0.8680894503577974
0.8102370767113646
0.7294018995767555
0.6071057186318639
0.4524251946027509
0.3025379791111617
0.1717800402690645
0.06877312330131598
7.752008776495709e-19
1.496375259421991e-30
-1.464518136687764e-20
-9.604669003605649e-21
2.813793897070975e-21
-8.480212559139494e-21
1.760659833394241e-21
-6.842955387613907e-20
-4.836121370691861e-19
0.0009252278332913331
0.01742701997035451
0.2463757005034119
0.2365102610475406
0.2096234237142873
0.1702862468971755
0.1230292139657482
0.07300593212761065
0.02462462560905763
2.569541500963612e-19
1.044960016530211e-28
-1.163148916858778e-29
5.782325160231569e-29
-9.012449173068236e-28
5.458656508440826e-12
7.185150845019668e-13
-7.829131232583466e-26
-3.768599124143828e-36
0.001417169486095841
0.002197511453884604
0.002216399516056607
0.0004573087959376193
-4.415894360907625e-21
-6.294247415500604e-22
-2.861405768581005e-20
-7.063568894970599e-21
-3.766344945449326e-21
-7.276716061983447e-38
-7.47590607915447e-34
1.014477157272085e-31
4.218450432159607e-30
1.395920002762241e-28
1.762727304015273e-12
1.391018440507698e-11
1.360222069303207e-11
1.960311196703401e-11
9.345807151616935e-11
1.363383205617777e-10
1.593946080927546e-11
6.981171203951643e-08
1.368001413407438e-26
0.0003091340329197324
0.0007429679195220354
0.000216715231486368
5.340152420893323e-07
3.230478640319531e-09
2.163347953815333e-09
9.833166815907653e-10
-1.972957939293581e-20
-7.498525724939253e-21
2.324614122934802e-19
4.879455863679522e-16
8.518985507987676e-14
2.569225441572859e-12
1.748685868939068e-11
3.776448459511716e-11
4.94034093393987e-11
2.816953171899016e-11
2.582606035225217e-11
6.103143191381901e-11
1.043164269312737e-10
1.405108041527318e-17
5.323699360104159e-06
9.367687675157745e-07
-7.938045094709637e-23
-1.330821306014842e-24
1.058791141776311e-24
1.518757833017225e-08
2.022701238120884e-08
1.174141909250649e-08
5.368968713570046e-10
-2.204948361674876e-20
4.108620524067752e-21
8.341833870751617e-17
2.424925948199037e-14
9.827253557188405e-13
1.103666916005613e-11
3.431643799052748e-11
4.643050007131103e-11
4.418230058138575e-11
2.880667471441882e-11
2.667123298741622e-07
2.115207277929412e-08
5.469842053788832e-11
1.532111229460269e-17
9.315517031528373e-06
3.595553990711524e-05
1.738435621461216e-05
4.135392111607984e-07
1.872202366743813e-24
1.576694399461565e-08
1.761944734335292e-08
3.577667911434288e-09
5.627150825665165e-11
-1.528242394532665e-20
1.481722670363877e-18
2.449343675303431e-15
1.842439648072956e-13
2.892152718072222e-12
1.56932639092057e-11
2.761125269346718e-11
2.381994729011094e-11
1.623035562534696e-11
1.455963484930803e-05
6.219615935453171e-05
2.386731899021769e-05
9.2091867696687e-09
1.771321150952248e-05
0.0001316738021382962
0.0001434450895894887
5.638080816918304e-05
-7.743278895402823e-23
2.863536286336894e-10
7.569995095318582e-10
2.045749098258023e-12
2.5162300428625e-12
4.6383686070787e-11
-3.896865136582435e-21
3.261288083850128e-17
1.325647546094446e-14
4.880333862921498e-13
4.856883419056596e-12
1.510131267755656e-11
1.548215679130107e-11
1.623035562534718e-11
1.548215679130029e-11
6.582209420237402e-05
9.565428319315391e-05
5.214588909869797e-05
5.886495964836203e-05
0.0001693282042998525
0.0001693629850419945
0.0001438119576664852
1.59405444781052e-05
2.34636543727406e-22
1.546437485907867e-32
3.273676319520571e-22
1.668740436069614e-12
1.114592570828111e-11
1.67112408537163e-11
1.266709263899389e-20
1.382140096890359e-16
2.688800536668242e-14
8.13741929222855e-13
7.770008834138537e-12
7.321351790515478e-12
1.637494750548904e-08
2.848223775177433e-08
1.219415847634084e-07
3.667058974820225e-05
7.477680757428281e-05
2.172332677269463e-05
0.0001093664404472955
0.0001691504363599504
0.000101066312455438
-6.776154196103244e-22
1.166072652223401e-17
3.897964615493409e-16
2.202795420807584e-14
5.924320649540734e-13
9.502769447180779e-13
1.366964122608244e-12
4.104156799435374e-12
8.800502727127778e-20
2.32250843970319e-16
3.635190648541488e-14
1.437721780242595e-12
3.958696448218679e-11
7.165772610393089e-12
1.83037771889347e-07
2.240004994780055e-07
5.976535684944277e-06
3.167986956664855e-10
1.033975765665072e-24
0
1.058791183912489e-24
3.996337012543982e-06
4.889827713023422e-23
3.291232038446579e-22
1.081926956665157e-17
4.605401792520232e-16
5.151099820317349e-15
3.104451837445384e-14
1.055712763384577e-13
6.948362979024754e-13
5.237328459392335e-12
1.579888196754152e-19
2.721437326626529e-16
5.069714193048001e-14
6.065676055516384e-12
2.353635760939091e-10
8.066857289613998e-11
2.119876742002631e-07
3.312695320457464e-07
1.765478003739569e-06
1.697192667133672e-10
2.265262449881488e-10
1.017715278478073e-31
1.805031493095021e-21
7.372792854891842e-22
1.933692204803288e-21
7.984767427978068e-20
1.158117956025436e-17
1.02830696463841e-16
8.200990930789469e-17
1.855117870103429e-15
4.600636977083367e-14
8.559517895777957e-13
7.854174995144455e-12
1.822261853920594e-19
3.234396921066283e-16
1.876531329396134e-13
2.507321809963982e-11
4.911866859148516e-10
2.721265394472388e-09
1.533122452963575e-08
2.956667421734172e-07
5.923321030118968e-08
8.225213237451402e-08
8.151249227861916e-10
1.017739745114081e-31
8.819751246192115e-17
1.682031901442026e-16
3.179281280246636e-21
1.016944749594519e-20
1.343413320860776e-20
4.405533374866339e-20
3.983209134737841e-18
6.294772433983116e-16
3.236281151080316e-14
1.006498445312229e-12
7.987304763391351e-12
2.079099484579925e-19
1.204160741751189e-15
7.524461291746981e-13
4.286423473424227e-11
5.379454763823523e-10
1.165531926297408e-09
6.27048718814024e-10
3.944961383850637e-07
8.03405940119691e-07
7.324769619479948e-07
-5.65049328567529e-33
3.35290443212862e-14
1.683334441214344e-13
6.490183047149897e-14
-5.694255439914216e-24
3.219012582844341e-25
3.087738759679533e-22
2.70032792783676e-20
7.278580384575502e-19
1.183651415678845e-16
2.279255843384523e-14
6.739044871734274e-13
3.756612902708879e-12
6.662654382771975e-19
5.234866296034057e-15
1.260077429484811e-12
3.755509645539204e-11
1.08214833315267e-10
3.696727506169406e-11
1.552363267012182e-09
5.535109560747628e-07
9.12142537580642e-07
7.129248509336993e-07
-2.794292771729369e-29
1.197961181866638e-11
1.627873406967672e-11
1.262017125333186e-12
-1.822966222669763e-24
9.697388313166051e-25
4.701263863874002e-22
1.927766644764467e-20
2.935413994752156e-19
7.831031070574492e-17
4.611009592180585e-15
1.159879681435335e-13
1.297370603389554e-12
2.514670813081648e-18
9.517775440673089e-15
7.94220045156545e-13
2.86246857197009e-12
4.111746715247966e-12
4.608967083483013e-11
3.701631630482244e-11
1.489358834397145e-07
4.852898177708804e-07
-2.184887486871928e-28
3.37130888523676e-11
3.062689370459713e-10
1.666050882942455e-10
3.180274194529133e-12
-8.03687540524059e-25
-8.806608351277977e-26
8.988516585206255e-25
1.702471248857954e-23
7.974650693906262e-23
8.768855988318142e-20
2.424639069301166e-16
2.347537248885952e-14
2.20660363161976e-13
3.351681508413505e-18
1.646142929771801e-15
2.544263017779919e-14
1.597395626346915e-13
2.998383002735866e-12
1.707755930886987e-10
8.525181375941382e-10
7.355016521009654e-16
4.750709697853345e-27
4.84187921941759e-11
8.857975666343569e-10
1.153566286768817e-09
4.116826197818506e-10
2.108739367695132e-12
-3.214655915445964e-25
-1.383401619005798e-25
-6.353634090599756e-26
-2.941288037043376e-26
1.181652012036459e-26
2.018979319943824e-24
7.835468209288611e-21
2.551389487016243e-17
4.210128523779445e-15
7.096242552000931e-21
3.022517848947851e-18
3.569982420137031e-16
1.147730952555386e-13
2.208945332568701e-12
4.046398595598717e-12
1.743508850569929e-12
1.307709811421037e-12
6.763139154777125e-11
7.06020868216524e-10
1.527902603894702e-09
1.497172003284188e-09
5.021825148299983e-10
5.023556856676534e-31
4.067670550775531e-18
-5.150714873590061e-26
-1.62131849009815e-26
-8.256063745249658e-27
1.681325665921013e-26
1.027346847441629e-23
2.156846038220138e-22
5.471378498091258e-22
1.484704392646923e-23
3.775677368752352e-23
7.136749875124061e-21
8.44414532085842e-17
2.939963848971717e-14
5.516436628277194e-13
1.684462667842522e-12
2.274605998371731e-12
3.410708231384992e-12
1.413996401853314e-10
8.693521926886015e-10
1.401209956984882e-09
1.198594159768489e-09
2.653628448620658e-10
1.365728711811956e-12
3.004488178268626e-15
-2.238979243640453e-26
-4.04638958656116e-27
-1.485923009282401e-27
9.455889347067967e-28
1.901589233116257e-24
1.181120057754244e-22
6.313161773689268e-22
7.577940463063462e-22
5.490603685259221e-28
1.120810763078691e-22
2.912696244844629e-18
1.559373654820531e-15
4.469394326017504e-14
1.948119504922177e-13
4.461430426497683e-13
2.977762177077931e-12
5.928984804718798e-11
2.383027213564343e-10
3.497512199482032e-10
2.573736756358193e-10
3.119573215756358e-11
3.445459847841081e-12
5.292375505448794e-14
-9.90406666678386e-27
-1.242205903963992e-27
-2.482688460189581e-28
-1.873856742659897e-28
3.463090339246071e-29
4.225743629319242e-26
1.307114408682501e-24
4.173075815854858e-24
-2.759433132251478e-45
1.224128285829521e-25
3.843157648353056e-21
2.657615579650926e-18
1.047638716601646e-16
6.553476280057442e-16
2.607371485659217e-15
1.196684094899172e-13
9.555392128793883e-13
8.481718602606934e-13
3.118152146052805e-36
-6.560403794119733e-30
2.346758685708944e-12
4.26186136055781e-13
1.016528060267256e-13
-3.803766434352773e-27
-4.137829595048946e-28
-2.57532015113265e-29
-2.657711802012002e-29
-2.189181992023873e-29
-3.490470729080694e-30
8.315377230674905e-29
2.28252243112508e-27
-5.919589255087922e-30
-8.293625398746264e-29
-5.563709309096734e-28
-2.339092808508275e-27
-6.921708197061611e-27
-1.533792775104151e-26
-2.639777966234937e-26
-3.601392989595372e-26
-3.815224354818909e-26
-9.349766698098435e-37
9.803279035394287e-19
1.138203783243323e-15
3.084304897130468e-14
8.827003971223956e-14
9.518355021806354e-14
-1.15610548514621e-27
-1.176894528383394e-28
-2.107146010642543e-30
-2.203815965905631e-30
-2.194027178680125e-30
-1.740756862834991e-30
-1.019622195737394e-30
-3.478343189244483e-31
-3.425286920763965e-31
-5.598512456207212e-30
-4.389197849511384e-29
-2.171043456611652e-28
-7.620938262157029e-28
-2.022469955590736e-27
-4.218345272519718e-27
-7.091285471807139e-27
-9.768958334761573e-27
-1.113595486904726e-26
-1.039759323421376e-26
-8.456866448272956e-27
-5.572165533121173e-27
-2.926291243244579e-27
-1.120885411719186e-27
-2.615094932583592e-28
-2.419957797372829e-29
-1.484808991798274e-31
-1.427692052964584e-31
-1.555960952215304e-31
-1.426474924647569e-31
-1.057334842937406e-31
-6.144967604289153e-32
-9.729649096702976e-33
-1.857636143848384e-31
-1.700330636480376e-30
-9.855451630393314e-30
-4.073494913047788e-29
-1.280085316915297e-28
-3.179905525971246e-28
-6.396667400248116e-28
-1.055872607994407e-27
-1.435651510180936e-27
-1.598979911274537e-27
-1.435426954765506e-27
-1.008359453181273e-27
-5.276082253882425e-28
-1.890498737737472e-28
-3.952094275090728e-29
-3.229502718632998e-30
-9.445384673998367e-33
-7.413347267147228e-33
-8.649454367153209e-33
-8.89868708433322e-33
-7.671598401294568e-33
-5.428224206912863e-33
-1.658447189715041e-34
-3.575458124486035e-33
-3.69437959060819e-32
-2.420840540472108e-31
-1.131924878244906e-30
-4.021460380568926e-30
-1.126961048505841e-29
-2.547568084487116e-29
-4.69995469952831e-29
-7.093865276068656e-29
-8.702204797093663e-29
-8.532016803072461e-29
-6.489383226652573e-29
-3.644872757984998e-29
-1.390042440795551e-29
-3.063425321213239e-30
-2.591235863167038e-31
-5.421817602580013e-34
-3.139563262576662e-34
-3.833018787119518e-34
-4.375698852148596e-34
-4.30836490406502e-34
-3.58800657623853e-34
-6.777151735143216e-37
-1.636850214817919e-35
-1.890566899936182e-34
-1.38388516677829e-33
-7.218214680863327e-33
-2.854293484902284e-32
-8.875805919689151e-32
-2.218680527789594e-31
-4.51133659226028e-31
-7.489112938938126e-31
-1.010982569787298e-30
-1.096424867423901e-30
-9.343947570696075e-31
-6.033517622943191e-31
-2.776977059646445e-31
-8.126251936285839e-32
-1.141200044105093e-32
-2.617074298355282e-35
-1.095624814409629e-35
-1.359702873620147e-35
-1.704039016418748e-35
-1.893457750369661e-35
-1.822409933566455e-35
-3.015592715559071e-41
-1.120209125568872e-39
-1.983478159519012e-38
-2.224801651891287e-37
-1.774222668430443e-36
-1.06830903930837e-35
-5.029345461425511e-35
-1.889606115095365e-34
-5.72778009987216e-34
-1.40514709899495e-33
-2.778613145535678e-33
-4.377011126692085e-33
-5.375188758861642e-33
-4.964489989336095e-33
-3.244993611060926e-33
-1.338733751408033e-33
-2.630223316689238e-34
-9.693856295753249e-37
-3.164858396944562e-37
-3.886598103842464e-37
-5.292148324769506e-37
-6.576094317154547e-37
-7.22284639376037e-37
-1.268899341653238e-43
-5.10255937388219e-42
-9.727811410745596e-41
-1.169650365283641e-39
-9.953378940829017e-39
-6.365478226197085e-38
-3.167856712760375e-37
-1.252274026806107e-36
-3.975495419408105e-36
-1.016976218643567e-35
-2.088717524292339e-35
-3.405771156123e-35
-4.317820677761826e-35
-4.109989007196858e-35
-2.767622007704774e-35
-1.178607468497928e-35
-2.415752225655154e-36
-2.593441565651566e-38
-7.555191861785248e-39
-9.039338653884915e-39
-1.325503009242847e-38
-1.834158947675091e-38
-2.285638841562871e-38
-1.661059309892963e-46
-7.040572277655826e-45
-1.407476510563307e-43
-1.767347163628955e-42
-1.564678737965365e-41
-1.037396556794984e-40
-5.335092546631558e-40
-2.173179994464926e-39
-7.091706846261364e-39
-1.861289029891927e-38
-3.917613546935308e-38
-6.54529228257852e-38
-8.513996008785473e-38
-8.347211586625043e-38
-5.841913290436986e-38
-2.646635454548351e-38
-6.313323189556262e-39
-4.678307242087686e-40
-1.463032228952131e-40
-1.720704239176436e-40
-2.696401526265983e-40
-4.137105789908264e-40
-5.810593511896851e-40
-2.558581317046909e-51
-1.312594876023715e-49
-3.218292698787644e-48
-5.017062860064088e-47
-5.570979534714143e-46
-4.673794418019795e-45
-3.066203606836913e-44
-1.606109011866315e-43
-6.798911794745215e-43
-2.338900338823998e-42
-6.538609114815295e-42
-1.477309419582937e-41
-2.6663452940741e-41
-3.77065648189196e-41
-4.054358919105361e-41
-3.166234614447799e-41
-1.681301482801891e-41
-5.844714533865843e-42
-2.264707349146826e-42
-2.695147014777004e-42
-4.483963614515064e-42
-7.585198239795793e-42
-1.193287270402314e-41
-6.980043071889815e-54
-3.93410737373223e-52
-1.043703802362237e-50
-1.74039210615068e-49
-2.048442244715268e-48
-1.808570467442804e-47
-1.241580277025358e-46
-6.775091957939728e-46
-2.977449234627023e-45
-1.06068206723195e-44
-3.065887572848804e-44
-7.159521595945551e-44
-1.337330650118562e-43
-1.965152535246947e-43
-2.215945476506538e-43
-1.853450136975003e-43
-1.111949539801881e-43
-5.040019571336205e-44
-2.827273708155096e-44
-3.463956377577962e-44
-6.095462022003072e-44
-1.133579619100862e-43
-1.994027380506736e-43
-1.183666979307478e-56
-6.969594198791556e-55
-1.925059906109729e-53
-3.333674928892656e-52
-4.065889078512451e-51
-3.713020005587296e-50
-2.632817330951972e-49
-1.482691980541855e-48
-6.72404086815573e-48
-2.474232177412198e-47
-7.405942674428415e-47
-1.79986612923918e-46
-3.530604385310336e-46
-5.53706913537016e-46
-6.863635258860399e-46
-6.674155212158449e-46
-5.174937033834269e-46
-3.536017831609813e-46
-2.830136890638609e-46
-3.638230293139758e-46
-6.756471683197401e-46
-1.375846566774145e-45
-2.696923830759493e-45
-9.47443392174477e-60
-5.803559522629912e-58
-1.666207602430122e-56
-3.000197141059618e-55
-3.808825769142638e-54
-3.627699763309329e-53
-2.691252966333656e-52
-1.593097875656293e-51
-7.645723291598665e-51
-3.006326164866203e-50
-9.74976328647829e-50
-2.618429356835075e-49
-5.83714757004588e-49
-1.08192771872123e-48
-1.670825679469788e-48
-2.158708070227596e-48
-2.360678745788386e-48
-2.281727248227609e-48
-2.270623314669976e-48
-3.100279338220874e-48
-6.080797091496709e-48
-1.351482348731977e-47
-2.94323012710781e-47
-2.902261584256686e-63
-1.903419782351222e-61
-5.903250343791703e-60
-1.161571772094249e-58
-1.633520432267077e-57
-1.750347289112083e-56
-1.486034221227917e-55
-1.025302051337434e-54
-5.845657465143707e-54
-2.783405298041714e-53
-1.113496069773001e-52
-3.751147024142989e-52
-1.06320627911842e-51
-2.526126590847849e-51
-5.001797352877884e-51
-8.201661087166526e-51
-1.113719949870515e-50
-1.291572323317524e-50
-1.460567753407773e-50
-2.123793319319507e-50
-4.406303468945263e-50
-1.066606173998875e-49
-2.573823284737413e-49
-1.293497620606802e-66
-1.036105019949821e-64
-3.898864695828167e-63
-9.238554202141653e-62
-1.550616066601515e-60
-1.963111728909035e-59
-1.948038042430078e-58
-1.553721622259577e-57
-1.01306176672913e-56
-5.46171464321433e-56
-2.452417753967195e-55
-9.207118100494481e-55
-2.893112921807224e-54
-7.597741522436661e-54
-1.661972822011274e-53
-3.017753574693772e-53
-4.560547913944875e-53
-5.911854295724552e-53
-7.395214833381053e-53
-1.147954765353148e-52
-2.525111404196532e-52
-6.654332463936662e-52
-1.778302341854626e-51
-1.47852500604677e-69
-1.247519457517203e-67
-4.940547923363553e-66
-1.232245162125229e-64
-2.178430553764049e-63
-2.908073055949014e-62
-3.047246864340351e-61
-2.570964060297061e-60
-1.776860409983547e-59
-1.017760290827009e-58
-4.868079025097376e-58
-1.952844765998189e-57
-6.580861784089146e-57
-1.861782787319773e-56
-4.41203393148835e-56
-8.739952186476421e-56
-1.452593040286225e-55
-2.083204874214622e-55
-2.861402231528237e-55
-4.742682434950174e-55
-1.108777728721585e-54
-3.183460752058815e-54
-9.420320113922614e-54
-1.354892388330312e-72
-1.200356171875913e-70
-4.995561122328766e-69
-1.311068569049256e-67
-2.441946133021702e-66
-3.438483318795441e-65
-3.804617509906221e-64
-3.393139490679875e-63
-2.481685284556881e-62
-1.506188251155484e-61
-7.645470326202942e-61
-3.261217975728507e-60
-1.171545900175693e-59
-3.544728555412555e-59
-9.020983526825372e-59
-1.928571397364089e-58
-3.477305655700021e-58
-5.424878376532259e-58
-8.046050969779299e-58
-1.413178617151833e-57
-3.514260520856645e-57
-1.100576358421141e-56
-3.605913619959186e-56
-8.733992527869878e-76
-8.18472685824158e-74
-3.598374451610313e-72
-9.972247587803552e-71
-1.960418403399244e-69
-2.912022529034169e-68
-3.397332026748198e-67
-3.193522864981171e-66
-2.461479058371596e-65
-1.57465871308031e-64
-8.429825318652765e-64
-3.796263514715857e-63
-1.442076680441396e-62
-4.623980930631943e-62
-1.250589864439786e-61
-2.850837248981229e-61
-5.498621356559862e-61
-9.184337748978395e-61
-1.448980144483218e-60
-2.678143346964396e-60
-7.099562085214724e-60
-2.432582553277168e-59
-8.834024918406939e-59
-1.53849048184434e-79
-1.58316542954186e-77
-7.618680062511941e-76
-2.306011512436921e-74
-4.942477168800364e-73
-7.993144635709659e-72
-1.014187141119052e-70
-1.035976373232568e-69
-8.67204309028516e-69
-6.02280416757723e-68
-3.499831148092425e-67
-1.710834018927806e-66
-7.055592341651223e-66
-2.456765190930864e-65
-7.216846229118436e-65
-1.786302741664413e-64
-3.733029410530863e-64
-6.70448534996318e-64
-1.114820334220245e-63
-2.120832937638238e-63
-5.918143009509976e-63
-2.232837457702832e-62
-9.10242938934476e-62
1
1
1
1
1
1
1
1
1
1
1
0.9999999893272837
1
1
1
0.9999999988781422
0.7241975181833875
0.8234650406518941
0.9468987402740958
1
0.04265308416893433
0.0694521365021033
0.1089059517052994
0.1595331610831562
2.879762931451298e-20
-8.76625656419111e-20
8.799252856810031e-20
-1.441694192345442e-20
5.557265030900211e-10
4.201630921510236e-10
2.517890750957721e-10
5.28399925238818e-11
4.556479120892637e-11
4.780943178651122e-11
5.503130962972775e-11
5.880234327114644e-11
6.728238923928821e-11
9.328131100256717e-11
1.063933539709767e-10
1.369915717245999e-11
7.47816277403597e-11
9.677561972298048e-11
7.428277622575823e-11
1.404929281374465e-11
1.863114838534851e-11
2.114899654724267e-11
1.645161652759079e-11
1.363265804747401e-11
7.925434689463255e-12
1.319734951515412e-11
2.083195030922343e-11
1.463235694496105e-11
1.430923596311055e-11
2.371618293757749e-11
2.767890328268337e-11
1.778252745089996e-11
1.928516727965497e-11
2.784557960347581e-11
2.784247542091535e-11
1.493900442170974e-11
1.892779182595831e-11
2.395845986823077e-11
2.065071039532366e-11
9.548489521150594e-12
9.421995427572132e-12
1.173374859806083e-11
1.152589624433493e-11
7.166541373338255e-12
3.262467621102082e-12
4.443152068612417e-12
5.834886605589613e-12
6.855008535596644e-12
5.555156670336625e-13
1.175097067603609e-12
1.915482456442349e-12
2.420703848693551e-12
4.968386563779253e-14
1.832545064744153e-13
3.479749064163891e-13
5.675322330140125e-13
2.352778013239361e-23
3.473545093532893e-17
4.58889012736709e-15
5.152749309949323e-14
2.462800940108481e-22
2.356861750340722e-24
3.523240832304971e-27
7.386555697914497e-31
2.453199200913727e-24
5.762411783436822e-25
6.029043929360051e-26
2.116240635765134e-31
6.164294747642649e-27
6.125407093155487e-27
2.152376095748015e-27
6.000696335870309e-42
1.675246001685512e-31
4.442656555513935e-31
3.324272180180653e-31
-1.548125090656997e-47
-2.597285359369304e-32
-1.613084471496894e-32
-9.556022941131781e-33
-5.329750817855763e-33
-2.994022881496161e-33
-2.069746095617464e-33
-1.372638659647957e-33
-8.823409927226743e-34
-2.415709239958902e-34
-1.805310927162706e-34
-1.282333394684847e-34
-8.729402493953805e-35
-1.455868343374498e-35
-1.169893495441562e-35
-8.86114087146257e-36
-6.364877669049441e-36
-6.728118715773778e-37
-5.807582634451978e-37
-4.692384482285536e-37
-3.560723100295884e-37
-2.45780050289586e-38
-2.277513747014186e-38
-1.962741983206603e-38
-1.574442639925951e-38
-7.130965823909416e-40
-7.078598964148508e-40
-6.500030182848635e-40
-5.515967820667567e-40
-1.660275414587593e-41
-1.768554349504031e-41
-1.735867607774592e-41
-1.566161614896149e-41
-3.138245343407064e-43
-3.597329779993758e-43
-3.789765001959091e-43
-3.659669317603652e-43
-4.78189935665368e-45
-5.909388788751117e-45
-6.708208473048526e-45
-6.987503530439032e-45
-5.85682009905571e-47
-7.815133274777008e-47
-9.60157550042315e-47
-1.089343648800556e-46
-5.728612650826358e-49
-8.273383292611623e-49
-1.107227765172248e-48
-1.386048747711646e-48
-4.42845894629632e-51
-6.962504545145889e-51
-1.025097317446358e-50
-1.435911555394391e-50
-2.62530358802469e-53
-4.517825239762999e-53
-7.382368342363997e-53
-1.168853277082321e-52
-1.125139479424269e-55
-2.13091939766558e-55
-3.89285862604939e-55
-7.00288044259465e-55
-3.090272085024189e-58
-6.474208283054618e-58
-1.32790648077376e-57
-2.710125078265221e-57
-3.622252349384008e-61
-8.513887794486864e-61
-1.980497034527462e-60
-4.598674456149041e-60
1
0.405896453442267
0.0001805007634225972
0.005638592509397033
6.244296421672633e-13
6.262901298454222e-13
1.51498854293916e-11
4.902276230878349e-11
4.051043491532992e-11
5.18519683441854e-12
4.808470939957417e-14
1.074843290273446e-17
4.563323907129455e-22
1.083840768219951e-24
8.861828398236766e-28
2.516644402319349e-32
3.535192541299632e-37
-2.34946660028414e-38
-3.482652057497738e-39
1
0.9794293160169346
0.9444714033976895
0.7055230193880399
0.106068190376659
0.007095015007207518
1.61538223555155e-11
6.411214255609303e-11
2.018411949062751e-10
1.747776783067034e-10
2.574200499566577e-11
2.293365232213297e-13
5.565083342017876e-17
6.359979855454289e-22
8.491535756452251e-27
3.492859711895266e-31
1.496484785832236e-35
-1.960969517118094e-53
-1.492191324827744e-38
0.9999998626528307
0.999999999657586
0.9999999994952545
0.9988921635829591
0.998004393693265
0.7378008106745849
0.09522385996425103
0.0009054776547565438
7.790706186064532e-11
5.485193821290555e-10
4.17345748062004e-10
5.842381221505767e-11
5.623547046728431e-13
1.430297444307953e-16
1.492040233651303e-21
1.12329796333316e-26
5.989721523563611e-32
2.133739199516044e-37
-1.492876428793213e-37
0.9999999998163653
0.9999997664403633
0.9999997042455538
0.9999999999956123
1
1
0.9919198956868127
0.5151840088018123
0.02287996490758903
5.912657753256135e-10
8.872456213764432e-10
6.200557345594082e-10
7.616255264673668e-11
5.574557854107651e-13
8.64580143379856e-17
7.335394677959394e-22
4.273496893947281e-27
1.58969230796165e-32
5.293889276640223e-39
1
1
1
1
0.9999999710418507
0.9999999710311012
1
1
0.6825506640838838
0.03726909912352337
8.050383420751333e-10
7.22799257737992e-10
5.513227018351976e-10
6.904374367285485e-11
4.705799790717765e-13
6.014215124083257e-17
3.993152040532376e-22
1.467960004435979e-27
2.509592771498445e-33
0.2295662576519287
0.3469183814797823
0.6432999738479078
0.968782478919119
1
1
1
1
1
0.6070954300138104
0.01306526358403164
2.641092616028243e-10
5.261009671384575e-10
3.381716379122913e-10
3.385549506924847e-11
1.765459466455587e-13
1.32526055574588e-17
5.187847809854937e-23
8.60634934264381e-29
3.719584418510368e-19
0.001039534646571949