/*--------------------------------*- C++ -*----------------------------------*\
| =========                 |                                                 |
| \\      /  F ield         | OpenFOAM: The Open Source CFD Toolbox           |
|  \\    /   O peration     | Version:  2206                                  |
|   \\  /    A nd           | Website:  www.openfoam.com                      |
|    \\/     M anipulation  |                                                 |
\*---------------------------------------------------------------------------*/
FoamFile
{
    version     2.0;
    format      ascii;
    arch        "LSB;label=32;scalar=64";
    class       surfaceScalarField;
    location    "0.3";
    object      alphaPhi0.water;
}
// * * * * * * * * * * * * * * * * * * * * * * * * * * * * * * * * * * * * * //

dimensions      [0 3 -1 0 0 0 0];

oriented        oriented;

internalField   nonuniform List<scalar> 
4432
(
4.264258891591735e-06
-4.264258933093395e-06
8.575255763705716e-06
-4.310996917191702e-06
1.283936528960563e-05
-4.264109571415958e-06
1.70968861234255e-05
-4.257520879070956e-06
2.133740514917338e-05
-4.240519069871952e-06
2.55333699314179e-05
-4.195964824147231e-06
2.965982936814551e-05
-4.126459475231679e-06
3.368850839342878e-05
-4.028679059430677e-06
3.758200353468637e-05
-3.893495170691498e-06
4.129090795624045e-05
-3.708904446857683e-06
4.47509124674466e-05
-3.46000453380266e-06
4.787886978448559e-05
-3.127957337893357e-06
5.056751326453791e-05
-2.688643496294457e-06
5.267827755413907e-05
-2.110764289605997e-06
5.403209824738311e-05
-1.353820651869249e-06
5.440388506436737e-05
-3.717866923805655e-07
5.350605019438164e-05
8.978351583449091e-07
5.097300820321504e-05
2.53304261179555e-06
4.636150882416922e-05
4.611500693683522e-06
3.917864706494422e-05
7.182864645374698e-06
2.905181664879948e-05
1.012683745404763e-05
1.563932390550468e-05
1.341251334604445e-05
1.563681268590892e-05
4.320332663669612e-06
-8.584591649452734e-06
8.64584323054782e-06
-8.63650753879748e-06
1.295647716169377e-05
-8.574743557321522e-06
1.725751894081908e-05
-8.558562712164991e-06
2.153489984468952e-05
-8.517900025872894e-06
2.576814869656411e-05
-8.429213725095759e-06
2.993436654706982e-05
-8.292677370471433e-06
3.400548870896182e-05
-8.099801260646679e-06
3.794480314363076e-05
-7.832809638918145e-06
4.170412256610657e-05
-7.468223897787586e-06
4.52207866460596e-05
-6.976668638699121e-06
4.841394633584263e-05
-6.321117049423007e-06
5.117966575908428e-05
-5.454362931877981e-06
5.338424089332074e-05
-4.315339407614751e-06
5.485540094467894e-05
-2.824980623117595e-06
5.536317942843844e-05
-8.79564979899276e-07
5.461604816751711e-05
1.644966827689024e-06
5.224059379256763e-05
4.908497774936189e-06
4.776913899526253e-05
9.082956993721948e-06
4.0653957169218e-05
1.429804951569502e-05
3.034552297371834e-05
2.043527879938145e-05
1.646539199366411e-05
2.729266544685908e-05
3.209636179548652e-05
4.314826133900116e-06
-1.289941782032304e-05
8.631893289864904e-06
-1.295357473127736e-05
1.295267438361102e-05
-1.289552468549041e-05
1.726287470295641e-05
-1.286876306253348e-05
2.154669742057047e-05
-1.28017227695693e-05
2.578801039376673e-05
-1.267052671770799e-05
2.996604779084915e-05
-1.247071477844781e-05
3.40536342474033e-05
-1.218738771808925e-05
3.80151645605015e-05
-1.179433994244425e-05
4.180396583080886e-05
-1.125702514933459e-05
4.535925672271442e-05
-1.053195950593688e-05
4.860260497719797e-05
-9.564465274863781e-06
5.143321899170289e-05
-8.284976904540893e-06
5.372112548318308e-05
-6.603245818792564e-06
5.529778913774665e-05
-4.401644115852994e-06
5.59464960890291e-05
-1.52827162331632e-06
5.538355725169931e-05
2.20790624225255e-06
5.324597826033845e-05
7.046077762891509e-06
4.906434547737497e-05
1.32645914615692e-05
4.223019377797561e-05
2.113220433556177e-05
3.201907378924448e-05
3.064640594190164e-05
1.776419851389058e-05
4.154756269272266e-05
4.983931899965855e-05
4.31545879482108e-06
-1.721487655509128e-05
8.63148766061615e-06
-1.726960353052278e-05
1.296225156263472e-05
-1.722628851165012e-05
1.728264397441777e-05
-1.71891553864051e-05
2.157685867284201e-05
-1.70959373648984e-05
2.583175127011552e-05
-1.692541919314586e-05
3.002867968635502e-05
-1.666764305035021e-05
3.414205066080261e-05
-1.630075852260877e-05
3.813803533336866e-05
-1.579032441861575e-05
4.197215619166377e-05
-1.509114578803752e-05
4.558633183318992e-05
-1.414613491389806e-05
4.890563182495293e-05
-1.28837650275688e-05
5.183385266137628e-05
-1.121319749268899e-05
5.424663064556992e-05
-9.016023526615043e-06
5.598217458577599e-05
-6.137187723476447e-06
5.68312115913913e-05
-2.377308169554122e-06
5.651463213088168e-05
2.524486509643417e-06
5.468742833588906e-05
8.873282868453935e-06
5.087926331520322e-05
1.7072758473119e-05
4.443415217480726e-05
2.757731878559605e-05
3.443329143436622e-05
4.064727396511139e-05
1.973792458546169e-05
5.624295297680398e-05
6.954297713117543e-05
4.318551654731697e-06
-2.153342785996372e-05
8.638812007448212e-06
-2.158986351267022e-05
1.298143467319339e-05
-2.15689107791269e-05
1.73145688479725e-05
-2.15222891289647e-05
2.162389613155664e-05
-2.140526417506868e-05
2.589870395822976e-05
-2.120022649671362e-05
3.012250349253647e-05
-2.089144200276401e-05
3.42718492509911e-05
-2.045010363266359e-05
3.831534224090044e-05
-1.983381669091437e-05
4.221140281832916e-05
-1.898720558607083e-05
4.590549308850623e-05
-1.784022436606388e-05
4.932732307035221e-05
-1.630559417846693e-05
5.238678729318413e-05
-1.427266088813566e-05
5.496679958928426e-05
-1.159603502629914e-05
5.691334438184561e-05
-8.083731811160152e-06
5.802445285006138e-05
-3.488416000448429e-06
5.803328234133045e-05
2.515658116185929e-06
5.661749797282886e-05
1.028906909083434e-05
5.331278561111236e-05
2.037747349298315e-05
4.742241625269328e-05
3.346769206956923e-05
3.780665939846219e-05
5.026303867766521e-05
2.265727701804799e-05
7.139236126991815e-05
9.219672691859675e-05
4.324784950240791e-06
-2.585821180182752e-05
8.654111278267038e-06
-2.591918878304711e-05
1.301082558271515e-05
-2.592562396120943e-05
1.735994476945768e-05
-2.587140711529248e-05
2.168934552954599e-05
-2.573466364073861e-05
2.59905889092277e-05
-2.550146846859244e-05
3.024950641093933e-05
-2.515035796206142e-05
3.444529762778143e-05
-2.464589315376026e-05
3.854961773925744e-05
-2.393813494516822e-05
4.252448324111605e-05
-2.296206908301691e-05
4.631971572276597e-05
-2.163545474327032e-05
4.987075801757028e-05
-1.985663432377353e-05
5.309510347578754e-05
-1.749700420791474e-05
5.588489203811823e-05
-1.43858216113109e-05
5.809674478718116e-05
-1.029558306403267e-05
5.954170064870753e-05
-4.933371105581977e-06
5.995753463915424e-05
2.09982543042429e-06
5.905643759332804e-05
1.119016891151016e-05
5.639923490828546e-05
2.303468033694889e-05
5.128962699809122e-05
3.857730564500011e-05
4.238527232678936e-05
5.916740297357913e-05
2.701944250364739e-05
8.675822141017711e-05
0.0001192126972307478
4.338995503769113e-06
-3.019720506591085e-05
8.681417583195309e-06
-3.026160852578312e-05
1.305403598501947e-05
-3.029823990084322e-05
1.7422055919933e-05
-3.02394244365167e-05
2.177578350454553e-05
-3.008838842853636e-05
2.610925837532915e-05
-2.983494031952188e-05
3.041094781425245e-05
-2.94520441133582e-05
3.466317475534969e-05
-2.889811649919714e-05
3.884124108527215e-05
-2.811619735141229e-05
4.291140440026404e-05
-2.703222816843452e-05
4.682851891215223e-05
-2.555256480565784e-05
5.053443923058175e-05
-2.356255006365597e-05
5.395484112227734e-05
-2.091740148917029e-05
5.699143313182883e-05
-1.742240934372679e-05
5.951118020398712e-05
-1.281532707317258e-05
6.133362034140612e-05
-6.755810552230489e-06
6.225731737450059e-05
1.176129120631056e-06
6.197283071413483e-05
1.14746594254662e-05
6.013257798882861e-05
2.487494006717616e-05
5.610527533184458e-05
4.260461801638145e-05
4.846648013700967e-05
6.68062123018066e-05
3.371170734404196e-05
0.0001015130328420546
0.0001529235598730987
4.36858697702608e-06
-3.456578490458e-05
8.721165756813801e-06
-3.461417990214034e-05
1.311416375706458e-05
-3.469123015184316e-05
1.750427473455045e-05
-3.462952724102477e-05
2.188662864570659e-05
-3.447073365267422e-05
2.625852286947055e-05
-3.42068252291333e-05
3.061141246990987e-05
-3.380492364225189e-05
3.493132147267652e-05
-3.321801454855894e-05
3.919791820128224e-05
-3.238278216610065e-05
4.338245817944339e-05
-3.121675529648975e-05
4.744562447515965e-05
-2.961571749978951e-05
5.133632650673315e-05
-2.745323800202067e-05
5.49886755089819e-05
-2.456973618973787e-05
5.831409506839031e-05
-2.074781522767568e-05
6.119104287101067e-05
-1.569226409944513e-05
6.345472250551945e-05
-9.019486059460485e-06
6.491944570759185e-05
-2.885959747811728e-07
6.531908819366986e-05
1.107501796873318e-05
6.444019467588332e-05
2.575384083066519e-05
6.185441147324585e-05
4.519041781182886e-05
5.631647961835681e-05
7.234417434771977e-05
4.418171214865185e-05
0.0001136478687849921
0.00019717795912904
1.304550115462255e-37
-9.934113505263522e-39
7.761335560046991e-37
-7.075836889510253e-39
8.201283084659944e-36
-1.396687648476072e-36
1.541559783241952e-35
-2.463154340628393e-36
-5.062535615167877e-37
-8.381346753564033e-35
-1.665219090386519e-36
-1.671776894462968e-35
1.864211492974642e-36
-3.219118510810443e-34
3.696657723261599e-38
-4.092249081354031e-35
1.548015673357984e-39
-1.023608974882154e-37
-6.552470281251092e-40
-1.364810181794204e-38
-2.58036717984983e-40
0
-4.293593234013788e-41
1.427542926484124e-41
-4.600917447365491e-42
-9.455784116923647e-44
-3.554973868757313e-43
-3.116784175594612e-44
-1.966609366984677e-44
-3.263114077749527e-45
-7.395693602015376e-46
-2.029037171566678e-46
-1.685349292709528e-47
-7.870095846039776e-48
-1.738420199016588e-49
-1.754415103432445e-49
-1.684226768313659e-51
1.557853534849983e-35
-2.960745255123222e-36
4.57912559198347e-35
4.178525602286423e-35
9.258636509437422e-35
-1.401156521623432e-34
-1.007764282595959e-33
-4.264448986429392e-35
-6.024237051171677e-33
-3.773140301573046e-33
-3.879838800671718e-31
-9.199456677692433e-31
3.490946645397951e-31
-4.035412393694393e-29
1.556692331431342e-32
-9.635058557442535e-30
1.652919789025898e-36
-3.931332657709309e-32
3.26540383678645e-41
-4.818501026772058e-36
0
-2.096876417934331e-41
-3.316759800004147e-40
-7.348766622593404e-44
-6.464507090927509e-41
-2.449354570638488e-42
-7.560683559350844e-42
-1.270199510284488e-42
-5.83720205589877e-43
-1.861290440304947e-43
-2.922634811260938e-44
-1.541100155793841e-44
-8.609306426729949e-46
-7.721998735223514e-46
-1.125511366665421e-47
-2.179800178708997e-47
-2.613618232352425e-49
5.267722700411674e-34
-1.895788984162239e-34
0
1.067040435191427e-33
-3.706933352799142e-34
2.395477421915234e-34
-1.116191167796704e-30
7.929396232356743e-32
-7.555647230813098e-29
-1.380097647351546e-29
-3.58966128858256e-27
-1.242021352033802e-27
2.486244277184029e-27
-6.60837527554188e-26
7.760738685589937e-28
-6.67309425825754e-26
9.705813312696116e-31
-1.908438655585578e-27
1.151454238748677e-35
-8.911881137356563e-31
9.026146761640011e-41
-3.378163165690765e-36
8.223538673474128e-43
-9.447001016256104e-42
-1.615933431069869e-40
-9.093987248958299e-42
-3.592943050918143e-41
-9.0021194661756e-42
-4.193730746799444e-42
-1.992540267762914e-42
-2.910835856914263e-43
-2.287877836592152e-43
-1.125121007243511e-44
-1.504442082713995e-44
-1.855624466124037e-46
-5.35676290779524e-46
-7.869272234635546e-48
2.780741136408907e-33
-3.528786899587943e-33
-3.306238607156081e-32
-6.521264696007798e-33
-4.254382419863229e-30
7.662449552136384e-31
-3.629959033026363e-27
4.887809299506238e-28
-1.406666387072939e-25
-2.865675195141877e-26
-1.180410162838508e-24
-8.724998740330932e-24
5.947053799614107e-25
-6.341181451270954e-24
3.681838097193302e-25
-3.355157414288069e-24
3.998894346107673e-27
-3.355192186247008e-25
8.414419628864867e-31
-5.322876244351167e-27
9.712708742890061e-36
-4.972220569179839e-31
7.048562681255391e-41
-2.670547381461851e-37
3.440335605663507e-44
1.263180277231083e-41
-6.264508388040061e-41
-2.079817630523747e-41
-1.434696099249298e-41
-9.01086243976875e-42
-1.507625535821675e-42
-1.565648059815422e-42
-8.022132993390279e-44
-1.417276292501278e-43
-1.722522588473447e-45
-6.569903784387155e-45
-1.209475074574635e-46
-8.721442293653948e-33
-2.358045086575779e-32
-1.027254967560655e-31
-1.287199636517899e-32
-6.272928440052728e-27
5.845705736623952e-27
-2.706786182222197e-24
6.759984710881366e-25
-2.630402156807529e-21
-5.007598862579219e-22
-2.175238430173092e-22
-1.470087957930046e-19
9.595702806381898e-24
-1.558793876224385e-20
5.036509937543123e-24
-9.341646394412791e-23
3.036289254822856e-25
-8.276106011590926e-24
8.84867152672071e-28
-4.226574301679753e-25
4.986812747628609e-32
-5.348171800047598e-28
7.52829724998205e-37
-1.484515262005542e-32
4.447098806666744e-41
3.682401615845624e-39
3.083855027374842e-56
2.368298063053518e-41
-2.529542028188582e-41
-1.960450338507794e-41
-4.884366824985611e-42
-6.251156883210814e-42
-3.783249397843874e-43
-8.234105128048579e-43
-1.08973528594494e-44
-5.119232491232722e-44
-1.206170069593724e-45
-1.038761580471267e-32
2.933715352524359e-31
1.672383658008851e-33
6.524043959353563e-25
-6.844656456800002e-23
5.503577060267459e-23
-7.773566771795549e-21
1.862927086151406e-21
-1.430362122811459e-18
-2.45525933181229e-19
-3.333630844378954e-19
-3.061914554022724e-17
2.825270671889394e-20
-1.979736855522741e-17
5.51696865842142e-23
-2.597127530395517e-19
2.075144575364612e-24
-1.650160693254871e-22
7.061454842283991e-27
-1.088423071727783e-24
1.675089587565197e-29
-7.302655951644627e-27
8.346548348695926e-34
-8.37217740290583e-30
1.777459404071058e-38
8.532059633246915e-36
5.323658016861215e-40
5.204461629895634e-40
-4.708171016187544e-41
-4.306996429871051e-41
-1.753893723669076e-41
-2.643995918050269e-41
-1.857366027876713e-42
-4.75799669666239e-42
-6.689341289572812e-44
-3.696607926681387e-43
-1.04524734306738e-44
6.477918064069598e-26
0
-4.62906239674749e-25
0
-9.027811804208888e-20
9.035212551040253e-20
-6.133901175187311e-19
3.923624677922016e-20
-1.700569129899366e-17
-1.901227708205198e-18
-9.481461017677253e-18
-1.22298100892398e-16
1.033470131093702e-17
-5.002952519905256e-16
3.659481875824024e-19
-1.735807307300585e-16
3.638122251049475e-24
-1.311714721273022e-20
1.123464263836283e-26
1.455149229804594e-28
1.654636090391982e-28
-1.296013364723856e-29
1.236392721305978e-31
-5.753738363982213e-30
5.982683945597464e-36
3.379422371766078e-33
2.144955595690508e-40
4.815421360234681e-37
1.04488117560467e-42
5.391896062424692e-41
-3.789493202502024e-41
-6.519478582869284e-41
-7.021694050372317e-42
-2.050490530181684e-41
-3.396011917076347e-43
-2.13729597493231e-42
-7.343242469723566e-44
1.139433898367241e-06
-1.280245709736182e-06
1.317204530754829e-07
-1.955650584093367e-06
-2.972953160156846e-13
5.62593532594748e-08
-5.274649673392319e-18
9.383441821315096e-13
-6.593884381756657e-18
-2.449005394661548e-21
1.240700125420211e-17
7.860198381550432e-17
1.093404285371089e-16
-8.098459759130824e-16
1.635078268970023e-16
-2.91590265491056e-15
3.895520158721188e-19
-1.825650650789983e-16
1.890665788008278e-29
3.895520161155549e-19
1.991648191494347e-29
-1.305761242995102e-28
2.761970358025215e-29
1.034258579498391e-28
3.783353797551537e-27
1.258196879989217e-27
1.07500265897099e-28
3.841171297825564e-28
2.098902546728139e-32
3.827022718754827e-30
7.057875516188716e-38
2.694569880309309e-34
2.13295208387693e-42
7.800202956921634e-40
0
0
-1.414740167049031e-43
9.283157422236046e-06
-4.384892145558075e-05
1.867380729443324e-05
-4.400480816612984e-05
2.803980263843036e-05
-4.405720294342368e-05
3.742634937348861e-05
-4.401605024588484e-05
4.682431651569928e-05
-4.386867561408327e-05
5.622442851415479e-05
-4.360691024015589e-05
6.561701765722885e-05
-4.319748358767237e-05
7.498322444824926e-05
-4.258418956642258e-05
8.429141398838362e-05
-4.169093715338779e-05
9.349328423592263e-05
-4.041858834496096e-05
0.0001025197082148529
-3.864210224001898e-05
0.0001112797213795347
-3.621321063023328e-05
0.0001196559464588564
-3.294591934162136e-05
0.0001274932005299447
-2.858502670100244e-05
0.0001345997336674442
-2.27987615270488e-05
0.0001407744760747325
-1.519421058648368e-05
0.0001458682448843762
-5.382368281259154e-06
0.0001497991842208163
7.144087975101178e-06
0.0001531140810121734
2.243898582222332e-05
0.0001566675351434382
4.163703776152287e-05
0.0001633723910736317
6.563942715643713e-05
0.000183748418837478
9.327206233892905e-05
0.0001180633156258941
0.0002628631418977094
9.337449343094773e-06
-5.318633025093661e-05
1.87671842053653e-05
-5.343450135860171e-05
2.822257158787663e-05
-5.351254708554811e-05
3.770969688112206e-05
-5.350313033969461e-05
4.724322593447071e-05
-5.340215697588395e-05
5.68333434217055e-05
-5.319697682516545e-05
6.6486971892168e-05
-5.285105717943856e-05
7.62053524468493e-05
-5.230251064485717e-05
8.597967002377135e-05
-5.146519045588391e-05
9.578387685988813e-05
-5.022272682345787e-05
0.0001055681364351729
-4.842629121352808e-05
0.0001152581119463661
-4.59031155473954e-05
0.0001247512036096054
-4.243893693479306e-05
0.0001339073986656137
-3.774113451682988e-05
0.000142545697841816
-3.143698016135631e-05
0.0001504826830296768
-2.313114901249584e-05
0.000157704337983082
-1.260403970546505e-05
0.0001639987402640661
8.49634920145543e-07
0.0001708293156198844
1.560840840309612e-05
0.000179441579231666
3.302482381447332e-05
0.0001932978165135864
5.178329064247905e-05
0.0002152964526427045
7.127361664135208e-05
9.113278174175115e-05
0.0002422272054158519
9.440371593180777e-06
-6.262663836958356e-05
1.893435355478767e-05
-6.292841850211098e-05
2.846878016216457e-05
-6.304690676752166e-05
3.806135514044574e-05
-6.309563569423508e-05
4.774146612990967e-05
-6.308219478016612e-05
5.753730698540615e-05
-6.299273972572164e-05
6.747456932460487e-05
-6.278823562239041e-05
7.75761969816369e-05
-6.240404744727706e-05
8.785649349158131e-05
-6.174538965250667e-05
9.830452642924399e-05
-6.067065975202909e-05
0.0001088733215867319
-5.899498956065271e-05
0.0001194795536529396
-5.650925964142926e-05
0.0001299964752748096
-5.295576173347476e-05
0.0001402925639296113
-4.803706331833993e-05
0.000150147814930573
-4.129207477328409e-05
0.0001591670503623596
-3.215029194893874e-05
0.0001670533240296934
-2.049032785915168e-05
0.0001751540743528041
-7.251215861045261e-06
0.0001833199069376736
7.442503194799777e-06
0.0001922966737826795
2.404808141213815e-05
0.0002042917610192402
3.978828340666971e-05
0.0002209086359760724
5.465687993368946e-05
6.662438615124359e-05
0.0002454172908500433
9.540106067992685e-06
-7.216666282654586e-05
1.909180111971745e-05
-7.248003045106335e-05
2.869338069510756e-05
-7.264840148229581e-05
3.837930722444323e-05
-7.278147469183508e-05
4.819193362702333e-05
-7.289472986122263e-05
5.817224322114802e-05
-7.297295210652083e-05
6.835997954363876e-05
-7.297586577851461e-05
7.878838694972608e-05
-7.283233561117532e-05
8.947779759456166e-05
-7.243467747987118e-05
0.0001004163968806228
-7.160915059270733e-05
0.0001115581172455254
-7.013662409268699e-05
0.0001228130821621518
-6.776415949866868e-05
0.0001338959393688181
-6.403851831896297e-05
0.0001437118391296741
-5.508286084445274e-05
0.0001499164014469523
-4.188849389501349e-05
0.0001534801500570767
-2.842379766314122e-05
0.000156704309700866
-1.652322115194446e-05
0.0001629649570888331
-7.391980305746944e-06
0.0001760716580495969
-3.65031285662651e-07
0.0001926651852234761
1.121962259287364e-05
0.0002068729474690652
2.558059252288617e-05
0.0002201749912777771
4.135483938756951e-05
4.816161129648338e-05
0.0002386378769313173
9.607476382557803e-06
-8.177405919791497e-05
1.916874266451611e-05
-8.204121473604724e-05
2.878035892542846e-05
-8.225993736272219e-05
3.848640277916107e-05
-8.248743756881168e-05
4.833521036670618e-05
-8.27434525208446e-05
5.837195517622041e-05
-8.300959927430102e-05
6.864136870087667e-05
-8.324514707326679e-05
7.910139304698946e-05
-8.154553315024958e-05
8.788083940383571e-05
-7.173113533273258e-05
9.292235921432452e-05
-5.792747860199095e-05
9.24021248875934e-05
-4.246164975136795e-05
8.514473672466036e-05
-2.733886716558812e-05
6.989735031014077e-05
-5.342118037475032e-06
5.225581934844417e-05
-1.34276130865112e-16
3.900843333185478e-05
8.321247898887994e-25
2.936939254537924e-05
5.096676779784482e-25
2.404118077558282e-05
-1.430244132227878e-07
2.535864529161967e-05
-2.747762964930944e-07
3.337012366864498e-05
-2.018757889367591e-07
5.021557565228167e-05
-1.267994669494204e-08
7.931960318529817e-05
2.461530722855775e-09
0.0001229214133058318
3.854866496398657e-07
5.343869599922808e-06
0.0001708904506107191
8.954756860922909e-06
-5.680458192342025e-05
1.75185537112001e-05
-5.563692430045056e-05
2.554957710508109e-05
-5.233094697928531e-05
3.263108901496869e-05
-4.711861354636114e-05
3.811665483717624e-05
-4.029912062791377e-05
4.103177225610058e-05
-3.225329595057773e-05
4.002885472562576e-05
-2.244992580585383e-05
3.327252643704771e-05
-7.646407001616088e-07
2.492377274631816e-05
-1.610450617300218e-15
1.650622030897712e-05
-1.547793698576117e-15
8.699324782368525e-06
-2.475249493054635e-15
5.342118036775058e-06
-1.17791559268962e-14
3.266261963475064e-23
-6.999744665728944e-16
1.913702568029864e-34
-1.342760982024924e-16
-1.395080654940779e-24
6.352000832747568e-30
-8.963053247663878e-25
1.306909639518069e-31
3.75520885573913e-25
-1.430244132227878e-07
-3.57104437950087e-25
-2.747762964930944e-07
7.265783761088177e-24
-2.01875788936759e-07
-6.636733989815301e-23
-1.267994669494155e-08
2.461530722854898e-09
-5.475846314078947e-24
5.175735166731142e-07
-1.208178636854325e-14
-8.712654163807671e-15
7.038202233619202e-06
2.015183928581097e-06
7.991066485867853e-25
3.544780724765268e-06
4.080528873084803e-25
4.328936883451732e-06
-4.530969997431151e-23
4.265007859717714e-06
-7.524793880578459e-20
3.349863385229717e-06
-1.144620721464432e-17
1.782779720698773e-06
-3.28047599278195e-16
7.645172026260512e-07
-2.191908560386452e-15
-1.074591378904754e-23
-3.526240529383356e-16
4.728235007057245e-35
-1.610450628046131e-15
2.056108930595016e-32
-1.547793698576116e-15
6.556711072228512e-33
-2.475249493054635e-15
6.179226383196173e-29
-1.177915592689626e-14
1.042386641114616e-15
-9.232752574128654e-15
5.08376362364503e-17
-8.065399713585181e-22
-1.554992210958197e-29
5.083763623545901e-17
0
4.526104953770224e-28
3.305923973779131e-07
-6.43002031140134e-08
2.538600977900542e-07
-1.618299635738725e-07
1.601338340797012e-07
-1.072460539211737e-07
-6.881930938204377e-17
-3.625499441363821e-09
-1.018325429972016e-24
-6.881931251125663e-17
-2.090968981662804e-24
-1.20817863818917e-14
-8.712654021044173e-15
1.751663859004048e-23
-8.010926979411495e-26
2.200917900236501e-24
-8.230966530021146e-26
7.509665554933396e-25
-2.234479484945707e-42
-4.539200963961172e-23
-2.912325069107096e-37
-7.524793880578459e-20
5.253235685759146e-36
-1.144620721464432e-17
2.669801812956805e-34
-3.28047599278195e-16
1.319238700181872e-29
-2.191908560386465e-15
5.50405377134018e-16
-3.970192775679938e-15
1.639635796096977e-15
-5.749540121095286e-15
1.68776404059211e-15
-3.144868850080618e-15
2.526004465450069e-15
3.28749034460856e-17
1.037148047374758e-14
1.62887002551056e-15
2.119273427691865e-14
-6.801112126934721e-15
2.119273188960048e-14
-8.10917873281673e-22
1.574671450533647e-11
-2.133422292057462e-12
8.333177701277921e-11
-6.758506250744275e-11
6.77037319932833e-08
-2.115029137364635e-09
9.30774041728024e-08
-9.295519424213855e-11
6.962343776853998e-09
-2.02911427100194e-28
-1.400384656234567e-12
-8.825861380944019e-12
-2.40284311141712e-13
-1.134639307184542e-12
5.992224631271187e-13
-4.558619253935257e-13
-3.532342963709843e-14
2.197016583832408e-13
-1.593975256846296e-25
2.571274324205009e-24
-1.229993238046081e-25
-1.013989215233333e-24
2.384481388130579e-23
-6.189487627789041e-22
5.434483599609668e-20
-5.794093331041073e-19
1.044915707169016e-17
-5.333340456433512e-17
3.367610247502429e-16
-1.090692160559607e-15
2.116193878353671e-15
-4.484106362146749e-15
3.60747868776024e-15
-5.946508215954263e-15
5.231985969698841e-15
-5.63106166849641e-15
2.840550340330907e-15
2.361323644067203e-17
2.534710963178241e-15
4.438886903546731e-15
4.057073936208648e-15
1.191316340720135e-14
2.103731056120109e-14
3.138195572610172e-15
2.103731309425641e-14
-9.398211842961904e-22
7.987120219184014e-10
1.231920115381689e-10
1.350092055272061e-10
7.057037655614872e-10
-1.381882759172709e-26
-1.980019931837429e-09
-2.197751967194761e-28
-9.295519424213855e-11
7.069676615736443e-37
-4.226866245266375e-28
7.262696300798799e-13
-1.926351576994426e-12
4.044522104400366e-12
-1.469396177078278e-12
1.490644979821569e-12
-7.12378014471286e-13
-9.04267631094227e-15
1.294425811782131e-14
-1.616131751681346e-25
1.83972040243729e-24
6.557862308045449e-25
-1.579931876487792e-23
6.354142696463759e-21
-8.88110239585411e-20
2.180536678807766e-18
-1.217130027834682e-17
1.001100955218147e-16
-2.763532745118766e-16
1.143915603916052e-15
-2.197701225047505e-15
2.702509256382879e-15
-4.441190466770298e-15
3.953096265403165e-15
-3.439132679943753e-15
4.321369143199231e-15
-2.270209505308922e-15
5.563109842957634e-13
-5.508484328441102e-13
1.101560110173675e-10
-2.044823517310863e-09
5.672391976170511e-12
-4.325615577279689e-10
2.831177335296011e-21
5.675552920488768e-12
1.652126838652255e-10
-1.652126838657443e-10
3.555132069361855e-09
-3.288111952171997e-09
6.164555474475094e-09
-1.129873045576284e-08
5.931907493398114e-10
-4.678703837993928e-09
-9.060500326358757e-13
-1.846786298230772e-13
-8.824364965369732e-13
-2.361353609888694e-14
2.961192449451013e-12
-2.694124008037738e-13
2.602651984218669e-12
-6.760775004682788e-14
1.143760932001534e-13
-2.022524168714689e-15
-6.013591797067979e-15
1.463564300043747e-14
-1.001204646535585e-25
3.584657071910923e-25
6.411599928107434e-23
-1.568220119556566e-21
1.398288033448157e-19
-1.148191368956621e-18
1.295113587299005e-17
-4.991884797821866e-17
2.308749412227364e-16
-5.45877731651262e-16
1.166001982095627e-15
-2.355820243372714e-15
1.717426472916098e-15
-1.201896373936856e-15
2.98574677484155e-15
-9.775002755525665e-16
1.844729369882417e-15
-2.546461716501689e-15
4.651024199236788e-09
-7.145466113963128e-09
5.403346645592735e-09
-1.298297910700614e-08
4.499806855891133e-10
-4.591718003260536e-09
5.472553652920562e-10
-1.23711925438883e-09
1.025187725462347e-08
-1.063719568702124e-08
1.817193389785859e-08
-1.24369057396639e-08
1.8539831466615e-08
-1.19152076976941e-08
1.700587090393484e-13
-3.38134433209323e-09
-1.461992078117298e-14
1.112590896781355e-26
4.558973357277193e-14
-2.295004650606544e-18
6.704464083813847e-14
-7.057861280607705e-17
2.83387704388345e-16
-2.683461733261178e-16
4.159298494966255e-16
-1.440831551390676e-15
-3.376096196493273e-15
1.343994253120109e-14
-1.587324101259876e-26
-2.200399568526439e-24
9.800955165737549e-22
-1.432765486879915e-20
5.572252843219403e-19
-3.27126744405979e-18
2.607899880208019e-17
-9.230709726699282e-17
2.852965882035858e-16
-8.143130639896083e-16
6.811725791876541e-16
-1.179671056597188e-15
8.283897089214991e-16
2.953142517815624e-16
1.802141899597858e-15
-1.2300459465856e-15
3.810677923862242e-11
-3.810610625188977e-11
4.886500325296593e-09
-9.455643495831843e-09
7.446339597911797e-09
-9.953966156138421e-09
7.925446520299368e-09
-8.009142934507154e-09
1.02366753792696e-08
-9.342953937472451e-09
1.720976458374256e-08
-1.754040861856697e-08
1.459531652784726e-08
-9.875452017828221e-09
5.349110706467031e-09
-2.695245020456121e-09
-3.33866638838653e-20
-1.304889455933357e-21
-1.170497812811405e-26
-3.338725399902891e-20
2.518783745533459e-26
-2.295004243461052e-18
2.373545912240586e-22
-7.057885057950792e-17
3.730540231004403e-16
-1.772472772818933e-16
2.196840136014861e-15
-2.997082426826886e-16
-7.356047189417832e-16
3.464483624330631e-15
7.25801227431474e-26
-8.557599820516249e-24
2.809515625306954e-21
-3.148865356677465e-20
7.978430942626275e-19
-4.739732633447948e-18
3.174711578640161e-17
-1.444455938035439e-16
2.96314481501548e-16
-2.400901866689643e-15
2.336033520609022e-16
-1.247840561549171e-15
1.820799509111696e-12
-1.765697250859103e-11
8.15047993037697e-12
-2.900853814206264e-11
6.210315983136228e-10
-9.270592108237979e-10
3.081535286810386e-09
-1.151776766199268e-10
3.666023066921731e-09
-4.254528425841056e-14
3.311678819680311e-09
-7.469004123793167e-33
1.07809447179519e-08
-4.460135889916165e-25
5.709107518090137e-09
5.046095044252001e-26
2.69524502045612e-09
-8.145015670124564e-25
2.155894496455461e-26
-2.366207294848391e-25
4.515135961105995e-41
-1.305656392927236e-21
5.063825564051008e-20
-4.684397368403809e-20
3.126026389412212e-18
-9.935231312923136e-19
7.030614411050365e-17
-7.234707543734295e-18
1.204274819314224e-16
-2.399097595617827e-17
2.237006871186323e-16
-1.307733313024421e-16
-9.733404671264168e-16
9.881345368854471e-16
2.888380660362723e-25
-2.117399234624969e-23
2.85887463633141e-21
-3.842548668507149e-20
6.745507326884934e-19
-6.03130324352578e-18
3.79726657674383e-17
-4.508302294555795e-16
1.132184860176056e-15
-2.488465491219142e-14
2.293334320652647e-14
-2.275214036425495e-14
9.018393537313835e-12
-3.528789435980759e-11
5.102919503540807e-12
-5.431578247832763e-11
1.152320078222195e-10
-2.772076085546231e-10
5.433560956982654e-15
-6.876727149968584e-14
7.277623544908242e-33
-3.71117233014279e-14
1.281366719341539e-36
6.822902541963628e-44
2.876571877712193e-61
-4.460135889903351e-25
-5.577590493665938e-27
-1.644180193451709e-25
3.663514313811475e-27
-2.042223129261375e-25
1.492860410358667e-25
-6.719645480758079e-24
6.355626297940162e-22
-1.121621381070303e-21
3.617557558354725e-20
-1.976654342098882e-20
4.413051948552273e-19
-1.965596159845461e-20
2.983891791332977e-18
-4.381883925601975e-19
1.349912425889345e-17
-9.828884465273831e-18
1.278615242494663e-16
-1.676066907603625e-16
-1.853097139009449e-15
1.152561408007493e-15
2.154925019126764e-25
-2.521686972739561e-23
1.333660528650207e-21
-4.303287273691401e-20
4.43986645540501e-19
-1.436845760927649e-17