/*--------------------------------*- C++ -*----------------------------------*\
| =========                 |                                                 |
| \\      /  F ield         | OpenFOAM: The Open Source CFD Toolbox           |
|  \\    /   O peration     | Version:  2206                                  |
|   \\  /    A nd           | Website:  www.openfoam.com                      |
|    \\/     M anipulation  |                                                 |
\*---------------------------------------------------------------------------*/
FoamFile
{
    version     2.0;
    format      ascii;
    arch        "LSB;label=32;scalar=64";
    class       volScalarField;
    location    "0.3";
    object      alpha.water;
}
// * * * * * * * * * * * * * * * * * * * * * * * * * * * * * * * * * * * * * //

dimensions      [0 0 0 0 0 0 0];

internalField   nonuniform List<scalar> 
2268
(
1
1
1
1
1
1
1
1
1
1
1
1
1
1
1
1
1
1
1
1
1
1
0.9998411597033183
1
1
1
1
1
1
1
1
1
1
1
1
1
1
1
1
1
1
1
1
1
1
0.999887882383881
1
1
1
1
1
1
1
1
1
1
1
1
1
1
1
1
1
1
1
1
1
1
0.9998468891164379
1
1
1
1
1
1
1
1
1
1
1
1
1
1
1
1
1
1
1
1
1
1
0.9994352120275105
1
1
1
1
1
1
1
1
1
1
1
1
1
1
1
1
1
1
1
1
1
1
0.9992951360499963
1
1
1
1
1
1
1
1
1
1
1
1
1
1
1
1
1
1
1
1
1
1
0.9992938815576285
1
1
1
1
1
1
1
1
1
1
1
1
1
1
1
1
1
1
1
1
1
1
0.9992957468809396
1
1
1
1
1
1
1
1
1
1
1
1
1
1
1
1
1
1
1
1
1
1
0.999744705721971
-3.966748226143994e-33
-5.58672648538963e-32
-3.481038502939108e-31
-1.342200265156162e-30
-1.88724243609574e-30
9.28968577876232e-32
9.255709381095612e-31
9.119559440113605e-32
2.400124285829517e-34
-1.660000493976822e-35
-1.155240122552792e-35
-1.985589817480844e-36
-2.287770124277605e-37
-2.009748236057261e-38
-1.347993455126541e-39
-6.688606076965475e-41
-2.303782603543987e-42
-4.880282774989382e-44
-4.732662308704153e-46
-4.679833141274075e-31
-4.284389653024043e-30
-1.537500754154093e-29
-1.084832393333723e-29
1.183134368412092e-28
9.992205780180172e-27
1.532204997775786e-25
2.32226024993708e-26
9.138813940011052e-29
9.585017645924964e-33
5.934527589071783e-38
-1.230222479950835e-35
-2.759399500791176e-36
-3.704372645054069e-37
-3.484235187656293e-38
-2.308609040643887e-39
-1.029310238538062e-40
-2.76403887292314e-42
-3.348110889805159e-44
-1.664007619102677e-29
-1.07835527782599e-28
-1.455598779817405e-44
8.73782049972508e-27
2.805772243998235e-24
7.692679779127035e-23
9.269641271606916e-22
3.224242329769225e-22
6.500792049877391e-24
2.915449105860941e-27
2.211375795994631e-32
1.305417802814814e-37
-5.903352809704985e-36
-1.575099889941809e-36
-2.263493707840096e-37
-2.086365371985741e-38
-1.224776592648681e-39
-4.162956303779538e-41
-6.196236853874697e-43
-1.910071048354358e-28
-3.796155147359813e-28
1.933669878367587e-26
4.127274454582807e-23
3.898099712791991e-21
5.932537998867068e-20
2.339731429473835e-19
9.092664022909083e-20
5.058333619915828e-21
2.195016922045725e-23
2.081441180454814e-27
1.515971236308956e-32
5.054714262066864e-38
-2.389949186841306e-36
-6.944161229130677e-37
-9.80773828654145e-38
-7.962594304743074e-39
-3.535452393890196e-40
-6.612774372433251e-42
-8.222459696602832e-28
1.064163954646647e-27
8.068790727206502e-23
5.04723179611326e-20
8.859278888194946e-18
3.484097589553296e-16
3.514816760509456e-17
2.562530751072545e-18
2.000759804093981e-19
3.274408013299622e-21
3.548316448663145e-24
1.159380949469414e-28
1.409432095191302e-33
3.049793539600919e-51
-1.075190815999275e-36
-2.869365580909171e-37
-3.424576234040543e-38
-2.045787345734809e-39
-4.906312448182677e-41
3.103660709011246e-27
-6.600086183336558e-22
6.840662258702633e-19
1.57806399089232e-16
7.847632094335425e-15
1.25152067380864e-13
5.044726337027102e-14
4.602546697967912e-16
3.905721345266658e-18
2.727278784873782e-20
1.26756549320652e-22
7.749864533511705e-26
1.981936362987616e-30
3.624205249402296e-35
-1.373880380390286e-36
-9.449290197268101e-37
-1.55472541926769e-37
-1.165856564721617e-38
-3.362079133468994e-40
-6.553027837938076e-23
-3.299811931998862e-20
-8.019572288428439e-33
5.604553318037003e-15
2.604471810738335e-13
1.677634226557838e-12
2.658625083602438e-12
4.256695064421872e-13
5.604230255764906e-16
3.834845999001918e-20
3.879830943748885e-22
1.31364341278626e-24
4.690211120565852e-28
2.024511265116635e-32
1.597745134796827e-37
-1.852249813926602e-36
-5.348822295633183e-37
-5.442969345067423e-38
-1.922746746825816e-39
0.02992987763463484
0.01312088865434083
0.0003162565164971049
5.112059608491678e-15
6.211569126756128e-13
2.593805465421318e-12
1.13157329073333e-11
1.293823696663251e-11
4.179879709193868e-13
5.800022533551399e-25
6.980982628894528e-25
5.800183497603118e-25
1.065726145130608e-22
2.282516636007078e-23
2.29081719927959e-25
2.776268606817194e-29
8.749678656960547e-35
1.587688143369892e-53
-2.645678836595992e-39
1
1
1
1
1
1
1
1
1
1
1
1
1
1
1
1
1
1
1
1
1
1
1
1
1
1
1
1
1
1
1
1
1
1
1
1
1
1
1
1
1
1
1
1
1
1
1
1
1
1
1
1
1
1
1
1
1
1
1
1
1
1
1
1
1
1
1
1
1
1
1
1
1
1
1
1
1
1
1
1
1
1
0.9952317510565146
0.9763249533613313
0.94503079720525
0.9117383436461753
0.8895992913436884
0.9056827340536735
0.9560004680367274
1
1
1
1
1
1
1
1
1
1
0.9990770186278084
0.9846122031017993
0.9464945003540501
0.8781370060296205
0.7797091609389785
0.6408160891020459
0.4843178504876868
0.3469869333784229
0.2413943754323368
0.1676980917585021
0.1313413114719437
0.1454459469101301
0.1908073003785484
0.2750017211766186
0.413721327966538
0.5862714286767828
0.9161842327004743
0.9102827773459869
0.893466078622016
0.8641126937102194
0.8192007022186104
0.7550084212115885
0.6678255352483884
0.5280197418958449
0.3845619335063644
0.2490091874421017
0.1341164656652734
0.04244438602203859
2.27427807771166e-19
1.498056877806988e-30
-1.217632782597395e-20
-9.669887471956157e-21
2.791692584941151e-21
1.949453143703534e-20
1.6216584180164e-21
-6.315506258469174e-20
1.283883144483215e-19
0.0007794952730582637
0.01609713243892419
0.1817978879773377
0.1737356405707887
0.1512115472979758
0.118410268646099
0.07945145333244807
0.03889532876733714
0
7.538592738599496e-21
-1.036905671549686e-28
-1.128668427169778e-29
5.793723240712346e-29
-9.011001678036354e-28
1.408665911466727e-11
1.839964301545134e-12
3.641191589400914e-25
-2.505955059041816e-25
0.0009655413748482138
0.002197313737211521
0.00219686384839968
0.0006249898092283334
-3.938425184764286e-21
1.342972349542095e-21
-4.777247894998781e-20
-8.496373661978732e-21
-4.177819302872579e-21
-7.276716068736282e-38
-7.114634292237444e-33
1.016148653535345e-31
4.223700604686377e-30
1.396776987634962e-28
5.069935189868384e-12
1.724133596155562e-11
1.529124007540972e-11
1.567054290687727e-11
7.252057986294268e-11
1.221562944024491e-10
1.532111229489924e-17
6.544759912945216e-08
9.871482153628643e-27
0.0001467226201728947
0.0005407993045975068
0.0002028093547649499
3.448934650169344e-06
5.478944234580454e-12
1.896931690080558e-09
1.333839768808301e-09
-1.998372931536851e-20
-5.895004085411053e-21
6.992531470233352e-19
9.090563697093822e-16
1.169535097337152e-13
3.033599020349987e-12
1.812444163731358e-11
3.86006965639075e-11
4.755657288372875e-11
2.717422553373763e-11
1.744067237165569e-11
1.960311196703373e-11
8.126469437227706e-11
1.405106389811169e-17
4.30613806056016e-06
8.473302457734939e-07
-2.979331381835319e-22
-8.159427979043416e-24
-2.470320639304771e-41
4.358536471098144e-11
1.806030402738267e-08
1.496668865995629e-08
1.827209376713918e-09
-2.111665144468707e-20
1.577774176876568e-20
1.597257260891778e-16
3.371510514798788e-14
1.11704014656106e-12
1.115491756670743e-11
3.275616160200325e-11
4.219907771908238e-11
4.022839264094415e-11
2.758274208878644e-11
1.916097100086026e-06
4.254492587629944e-07
1.405105783472838e-17
1.532102031469147e-17
9.417701886079244e-06
4.607144057109012e-05
2.572223202107263e-05
8.503632838743342e-07
-4.316658678793058e-24
9.417265338265356e-09
1.657755251288346e-08
5.582548138756745e-09
1.191711289330775e-10
-1.363519963319081e-20
2.870995561854854e-18
3.380682227676799e-15
2.109057939580021e-13
2.955859948868724e-12
1.4850543218512e-11
2.355355509209956e-11
1.99148704130286e-11
1.623035562534912e-11
1.745235240973717e-05
7.346120794520138e-05
3.330743640768369e-05
8.95613696082345e-07
1.835814123444845e-05
0.0001330512947080672
0.0001439479354179228
7.454019747605173e-05
-5.62218872730272e-22
1.839062533544528e-10
3.052029984727832e-10
1.363522398499678e-12
1.668740436069613e-12
2.854359544432728e-11
-1.306235981915725e-21
4.461859954870342e-17
1.495028973465278e-14
5.06964349360119e-13
4.858232683681576e-12
1.3401237120838e-11
1.423227466427049e-11
1.510131267755625e-11
1.548215679129953e-11
6.36201178327931e-05
8.990792394211558e-05
5.640067203573824e-05
6.51131602547283e-05
0.0001693282042998525
0.0001693629850419945
0.0001439663367417775
1.82123180664021e-05
2.054253667772143e-22
-1.810146948175859e-31
2.346365455556146e-22
1.118471843280831e-12
7.730334199612199e-12
1.22247100839373e-11
1.89819992546708e-20
1.539107786511609e-16
2.765687539320518e-14
8.349935404208232e-13
8.970121281642401e-12
7.235753309854762e-12
3.167372414215438e-08
5.159641247293681e-08
3.826051735691733e-07
2.354383558117145e-05
6.332046356541724e-05
1.311003347927709e-05
9.137165690682825e-05
0.0001604689776313991
9.367340818251341e-05
-1.252290813813004e-22
4.166632952418615e-22
3.514411775186107e-16
1.712627452770748e-14
4.44202883974377e-13
7.174471013580147e-13
1.050613887849564e-12
3.510800780078204e-12
1.013726963366574e-19
2.369872490281489e-16
3.697444508008464e-14
1.688410468268956e-12
6.022900686208121e-11
7.165772610393089e-12
1.944131036742946e-07
2.574134606821217e-07
5.141366792919563e-06
3.581863662944139e-10
-2.839588275859256e-27
-3.923635700109491e-46
8.467622102081182e-39
-4.257957128048667e-22
6.018529451331115e-38
7.362426268793868e-21
9.598253989717175e-18
3.922041404857497e-16
3.545977827196842e-15
1.994320020755951e-14
7.703044935809427e-14
6.077509518978087e-13
5.107171919959526e-12
1.62371186223526e-19
2.754402758846063e-16
5.801157012592793e-14
8.512553920986011e-12
2.916121866230337e-10
1.844237298016658e-10
1.880402318463889e-07
3.244853670364272e-07
1.566141569137766e-06
2.645097367998998e-10
2.829254526626335e-10
1.017715254129762e-31
1.151180073942898e-20
6.34542314204194e-20
2.024072758160983e-21
7.45182518678009e-20
1.008327400828858e-17
7.842009260835898e-17
6.023742323092358e-17
1.370910277766583e-15
3.803690925817889e-14
8.086854339274831e-13
6.995937913040229e-12
1.847697726708734e-19
3.654833227423524e-16
2.634005274434274e-13
2.991084627590026e-11
5.046825491933931e-10
2.521805370255995e-09
4.462949939506261e-09
2.857092963602045e-07
1.093044603440037e-07
1.357829326775269e-07
2.677320647968649e-10
-3.052642414676926e-31
3.857314867753247e-16
6.69205427904651e-16
2.966608992255282e-21
8.198826878961424e-21
1.03524228916397e-20
4.025031368039487e-20
3.004268579052155e-18
4.665281207756057e-16
2.915948083522145e-14
9.213888859876096e-13
6.863054349398767e-12
2.347981839404484e-19
1.742080270315956e-15
9.076467995383399e-13
4.556052902915986e-11
4.91034594246377e-10
8.446298812247007e-10
1.51931536615618e-09
4.620067849152519e-07
8.267497984992309e-07
7.358163018817933e-07
2.157685175763697e-31
1.121878629463802e-13
3.953402343385508e-13
1.227010652994304e-13
-5.029383884920556e-24
5.242134781868865e-25
3.619159681556972e-22
2.642656385237707e-20
6.424353351996664e-19
1.180744866703037e-16
1.965512077030066e-14
5.243715185332091e-13
2.955322913022043e-12
1.034184310509248e-18
6.600097225951277e-15
1.390930392641977e-12
3.30070443110875e-11
7.719144078456244e-11
5.506867828072841e-11
4.509763487218027e-09
5.678940972467772e-07
8.363856346292541e-07
5.62403451747414e-07
-2.794292769473328e-29
2.325237943897969e-11
2.402764626016889e-11
1.403575763307854e-12
-1.567912230116248e-24
1.331390111623205e-24
4.670395734215618e-22
1.618155868216265e-20
2.714881898586214e-19
6.728270934646403e-17
3.628069956453393e-15
1.020018977602036e-13
9.851487007505054e-13
3.28603385615759e-18
1.064364464808922e-14
6.59976625890474e-13
2.12343800503599e-12
5.156986128365768e-12
6.367332633531771e-11
5.50686782807284e-11
1.060407861077469e-07
3.959242912405266e-07
1.29662082785174e-11
1.138594710596198e-10
3.973155273458245e-10
1.818564585897673e-10
2.675644111509558e-12
-6.866499643758238e-25
-4.43810404726254e-26
7.943664423513762e-25
1.269317378977036e-23
6.07506356559006e-23
2.477754378245001e-19
3.307498657347856e-16
1.99734493470289e-14
1.554483647744473e-13
3.43726992942422e-18
1.275164753036203e-15
1.902666512788797e-14
1.554950143414009e-13
4.043970442658398e-12
1.776429950845116e-10
6.962447201546098e-10
7.371050609455105e-16
1.229664757090378e-18
1.595349781020512e-10
1.03674605550832e-09
1.190523311279443e-09
3.821290010001138e-10
1.039649421162978e-12
-9.488056016260017e-35
-1.224725313289178e-25
-5.489060566850135e-26
-2.357180033517197e-26
1.436475040818537e-26
4.378370060197395e-24
2.450980034065726e-20
4.986881473787091e-17
5.508293739169469e-15
5.431646483597338e-21
2.269273439740251e-18
4.177212714149068e-16
1.332069852173863e-13
2.026653375470639e-12
3.383589360653503e-12
1.791773618358941e-12
1.977165174342138e-12
9.804301492302275e-11
8.136671964665346e-10
1.508056239887878e-09
1.453043315527123e-09
4.282815837731511e-10
1.450759353210007e-17
3.575543225793199e-17
-4.533294390320308e-26
-1.397747985117443e-26
-4.587393617149949e-27
7.215290027703137e-26
1.823809448947139e-23
2.372570724254612e-22
4.930487932324492e-22
1.030946240727786e-22
2.865567893369651e-23
8.657025321664894e-21
9.720004315555762e-17
2.795450726184345e-14
4.746981518346789e-13
1.421040617880232e-12
2.101169875167496e-12
4.691082478084049e-12
1.657742369977989e-10
8.65788859026869e-10
1.314742717389161e-09
1.023565641858888e-09
1.955017850935843e-10
1.118869909608876e-12
5.727810191210244e-15
-1.945033978976841e-26
-3.475851835004215e-27
-1.054017431490318e-27
4.999680536124093e-27
4.227623431590582e-24
1.493503600734823e-22
5.478504007476559e-22
5.596760241180005e-22
7.92834297216418e-28
1.590140958115655e-22
3.297026170989907e-18
1.461068403101223e-15
3.706610123878081e-14
1.554530933341057e-13
3.668344431577047e-13
3.427444476271518e-12
5.679109302174494e-11
2.004062827637162e-10
2.74894604341716e-10
1.864401707771983e-10
2.201953887890406e-11
2.695003924272344e-12
5.274960487134078e-14
-8.479770119342008e-27
-1.05468725126054e-27
-2.1364499386875e-28
-1.40153839670251e-28
2.635473485219111e-28
8.772916086035859e-26
1.375448295485077e-24
2.988887377710977e-24
-5.96228341106374e-44
1.691580656139813e-25
4.293988562610413e-21
2.492146444101554e-18
8.676819425477678e-17
5.239764050797784e-16
2.855453488306207e-15
1.366922199243634e-13
7.312972553974153e-13
2.832225365879288e-13
2.393290754630934e-29
-2.34742036387838e-29
1.761377222663419e-12
3.286415808966163e-13
8.757859496700917e-14
-3.218464674478598e-27
-3.443897014474777e-28
-2.296131571386865e-29
-2.29839850520166e-29
-1.706660218045292e-29
2.136634839328693e-31
1.778960152671435e-28
2.388599481858568e-27
-5.813250034944145e-30
-8.058745537362306e-29
-5.352341472133195e-28
-2.228401454040147e-27
-6.532764799768743e-27
-1.434813565924683e-26
-2.448941314475653e-26
-3.308481700334532e-26
-3.318233561759113e-26
-1.487751736839436e-35
4.605536956856427e-18
1.81809244763472e-15
2.929025668499962e-14
7.29522529688263e-14
7.693776160981402e-14
-9.702193917720555e-28
-9.672883614478276e-29
-1.896041938087168e-30
-1.963018547129856e-30
-1.895275742988962e-30
-1.430349846273034e-30
-8.107408369067116e-31
-2.297614122567547e-31
-3.421718787102297e-31
-5.529982064540843e-30
-4.289140590028536e-29
-2.099208161194709e-28
-7.292693377732309e-28
-1.915848461400625e-27
-3.956837660833827e-27
-6.588862604242869e-27
-8.993872648194049e-27
-1.015312522143391e-26
-9.423021116718245e-27
-7.580100723262057e-27
-4.93496884546866e-27
-2.550457107452332e-27
-9.571856576571053e-28
-2.181857405323311e-28
-1.977588464422427e-29
-1.334313731005289e-31
-1.297612664378336e-31
-1.380673136452808e-31
-1.231142509976581e-31
-8.862945956630925e-32
-4.983966476488283e-32
-9.926061909014796e-33
-1.872875452837298e-31
-1.694970580819192e-30
-9.715183836539324e-30
-3.971410951516541e-29
-1.234357946640839e-28
-3.032506890585936e-28
-6.031201540476736e-28
-9.837847609374422e-28
-1.320816248014074e-27
-1.451108723888388e-27
-1.283412259968272e-27
-8.87000357475307e-28
-4.559424523182951e-28
-1.602813005144347e-28
-3.284976973851717e-29
-2.638003871430145e-30
-8.383597067477043e-33
-6.863241175892649e-33
-7.867240175769517e-33
-7.902583895010544e-33
-6.643401068126767e-33
-4.56748685473726e-33
-1.72389889637024e-34
-3.671684271909683e-33
-3.749203624737577e-32
-2.427900960428698e-31
-1.121840750637694e-30
-3.938058515647465e-30
-1.090094902098632e-29
-2.432942285561965e-29
-4.4284951129492e-29
-6.588995285222832e-29
-7.959328823534011e-29
-7.675117285119787e-29
-5.73410674140822e-29
-3.159600781658032e-29
-1.180968544757012e-29
-2.550695328462019e-30
-2.12349032831068e-31
-4.731659205261001e-34
-2.952101536509291e-34
-3.572618991122244e-34
-3.996544636314569e-34
-3.849317270858537e-34
-3.12320035362242e-34
-7.186054745606105e-37
-1.713890045407507e-35
-1.955133125785474e-34
-1.41336659908262e-33
-7.279351310880308e-33
-2.841639923961524e-32
-8.720426363984371e-32
-2.150216438586274e-31
-4.310139028558177e-31
-7.048565315849653e-31
-9.365566679714207e-31
-9.988124981298183e-31
-8.362064243047041e-31
-5.29872149922124e-31
-2.390605082723263e-31
-6.849429643110509e-32
-9.407026244855256e-33
-2.256486312058936e-35
-1.04164983705149e-35
-1.297460110726212e-35
-1.599743140644928e-35
-1.743755573187754e-35
-1.638631914187013e-35
-3.460101778487092e-41
-1.266372017152751e-39
-2.208490479808832e-38
-2.438649807230795e-37
-1.913480479530604e-36
-1.132958629069626e-35
-5.241375972615172e-35
-1.93377388826059e-34
-5.751358090525916e-34
-1.383145374296728e-33
-2.678622195264892e-33
-4.12799266865651e-33
-4.953845366777986e-33
-4.465746722391032e-33
-2.845550929418802e-33
-1.142962800029925e-33
-2.18386413921524e-34
-8.327573916295679e-37
-3.028917247082887e-37
-3.791444712765967e-37
-5.102728515381383e-37
-6.236453745019256e-37
-6.700416300789905e-37
-1.486508430461658e-43
-5.881676122048942e-42
-1.102936427126616e-40
-1.303786402959303e-39
-1.090236671218962e-38
-6.847777417545309e-38
-3.345030194846314e-37
-1.297096198940697e-36
-4.036416181756998e-36
-1.011368809490185e-35
-2.032837034961274e-35
-3.240868416074791e-35
-4.013328123528609e-35
-3.727545965753388e-35
-2.446614028071303e-35
-1.014494801331023e-35
-2.02343320436279e-36
-2.235845035055893e-38
-7.25929369097559e-39
-9.001073202233469e-39
-1.312282133417079e-38
-1.790625953932524e-38
-2.185841224020984e-38
-1.976998333581687e-46
-8.235339845970287e-45
-1.61753746512587e-43
-1.994877798078536e-42
-1.733947654563852e-41
-1.128213001965035e-40
-5.691430420376732e-40
-2.272899548526864e-39
-7.267472375327694e-39
-1.867699934006957e-38
-3.846435465117296e-38
-6.282989947408578e-38
-7.983811603627228e-38
-7.64004773415304e-38
-5.215161190502062e-38
-2.303767723829908e-38
-5.371163632756654e-39
-4.076248422362572e-40
-1.412610502047147e-40
-1.74628755800841e-40
-2.73982503617644e-40
-4.155137234938551e-40
-5.721208189452033e-40
-3.206741826784286e-51
-1.619986578975852e-49
-3.906217121840777e-48
-5.981572810663798e-47
-6.517559682056254e-46
-5.360608853834429e-45
-3.444889648025733e-44
-1.76619741732064e-43
-7.312467463952951e-43
-2.458498091771147e-42
-6.711971323685898e-42
-1.479848488079847e-41
-2.604529019878032e-41
-3.589386545298238e-41
-3.759651706307866e-41
-2.861344287970372e-41
-1.486380824767384e-41
-5.178484543417868e-42
-2.205241077561865e-42
-2.783618868542252e-42
-4.672637754193186e-42
-7.832512141900471e-42
-1.208952343418793e-41
-9.013091721123638e-54
-4.97967420002648e-52
-1.294545086705082e-50
-2.114439258016735e-49
-2.436683925568177e-48
-2.105464335725896e-47
-1.413911708899764e-46
-7.543682736477066e-46
-3.239717527463598e-45
-1.127215227065618e-44
-3.180511189485128e-44
-7.246216290213979e-44
-1.319928970423198e-43
-1.890913405164405e-43
-2.079154656713708e-43
-1.698459882804901e-43
-1.001788968117315e-43
-4.589958871044922e-44
-2.781880295231018e-44
-3.637564235303309e-44
-6.513241842388594e-44
-1.203843214180014e-43
-2.079304263105621e-43
-1.554339320880542e-56
-8.961174292786052e-55
-2.422920928118252e-53
-4.106146449268169e-52
-4.899576577892455e-51
-4.376129742889201e-50
-3.033915585490795e-49
-1.669964377120732e-48
-7.399659049626314e-48
-2.659529087837662e-47
-7.773321834203783e-47
-1.844403529794401e-46
-3.53248522299023e-46
-5.411904385614945e-46
-6.562841005446494e-46
-6.265097154988438e-46
-4.810698997512167e-46
-3.32993829216165e-46
-2.820428450895342e-46
-3.882257792647104e-46
-7.400389196755285e-46
-1.502879848656365e-45
-2.894934074306327e-45
-1.264372403423094e-59
-7.580013995995681e-58
-2.129709207808303e-56
-3.752395297015273e-55
-4.660921668621947e-54
-4.342999645124983e-53
-3.151753958698903e-52
-1.824964070446926e-51
-8.567290105382927e-51
-3.295432069522934e-50
-1.045728340177338e-49
-2.749115415963673e-49
-6.002932681038811e-49
-1.090889116410974e-48
-1.653887779444145e-48
-2.102292773851269e-48
-2.273477103735542e-48
-2.207993358810819e-48
-2.295604201068112e-48
-3.362069199898492e-48
-6.826672849843677e-48
-1.519017129959371e-47
-3.253368722261499e-47
-3.975006323097921e-63
-2.557031582949918e-61
-7.780378546793919e-60
-1.502204115978907e-58
-2.072973030678992e-57
-2.179348812083917e-56
-1.814855729522649e-55
-1.227684488171367e-54
-6.858752764490008e-54
-3.198021058121227e-53
-1.251944200689777e-52
-4.124367459750823e-52
-1.142494229745875e-51
-2.652031839099506e-51
-5.131045438853032e-51
-8.233378318960162e-51
-1.099807787910514e-50
-1.275143703211951e-50
-1.498716329271507e-50
-2.341710905036734e-50
-5.072095311065994e-50
-1.234360533735631e-49
-2.93179254472743e-49
-1.907218302221628e-66
-1.491800129660087e-64
-5.480878101838788e-63
-1.26786264282019e-61
-2.077250856891424e-60
-2.566891403826047e-59
-2.485967843157661e-58
-1.934897899043111e-57
-1.230978692101896e-56
-6.474539190421619e-56
-2.835774653244089e-55
-1.038335712559245e-54
-3.181898232205165e-54
-8.150141794325009e-54
-1.739910340563485e-53
-3.089032155415249e-53
-4.589470160972604e-53
-5.941756682356457e-53
-7.706415270176055e-53
-1.288048877006878e-52
-2.983363817825097e-52
-7.941526455739476e-52
-2.091704468034623e-51
-2.232843009942169e-69
-1.83828246292631e-67
-7.103859936311361e-66
-1.72896876670537e-64
-2.982688169978515e-63
-3.885342445224301e-62
-3.972452905831798e-61
-3.269821452150609e-60
-2.204415544857862e-59
-1.231468753811187e-58
-5.743777051375374e-58
-2.24650167805761e-57
-7.380677278706736e-57
-2.036026745773072e-56
-4.70778141687267e-56
-9.116659395927999e-56
-1.489179196789098e-55
-2.131019233462807e-55
-3.029444490412567e-55
-5.421537765591374e-55
-1.346826796810981e-54
-3.926093887297145e-54
-1.147136433863763e-53
-2.092454413763001e-72
-1.80887944182968e-70
-7.345395830301286e-69
-1.880917687210674e-67
-3.417919674068916e-66
-4.694898844123095e-65
-5.066900220034729e-64
-4.406900747852507e-63
-3.142681717655259e-62
-1.859413550081927e-61
-9.199646747702199e-61
-3.824391286306562e-60
-1.338885881638272e-59
-3.948618280423516e-59
-9.801177273330081e-59
-2.047528405001243e-58
-3.626235351766254e-58
-5.638877053768486e-58
-8.647467098011328e-58
-1.647543082759176e-57
-4.398312078936829e-57
-1.40622522873513e-56
-4.560774870751793e-56
-1.378147397602196e-75
-1.259739727741411e-73
-5.401705417666599e-72
-1.459938517139314e-70
-2.798789260044101e-69
-4.053694636658964e-68
-4.610807458793563e-67
-4.22506873824756e-66
-3.174115477572384e-65
-1.978848893904446e-64
-1.0322498981611e-63
-4.529151872129892e-63
-1.676224671077347e-62
-5.237383300929848e-62
-1.381128209873802e-61
-3.075210645011428e-61
-5.822175283483144e-61
-9.683307289709834e-61
-1.579493800533007e-60
-3.188898436352422e-60
-9.182402472420728e-60
-3.230633108936567e-59
-1.165261559758773e-58
-2.464697652293618e-79
-2.474301173011696e-77
-1.161452184920293e-75
-3.428928961889597e-74
-7.167971848467611e-73
-1.130562923843622e-71
-1.398878969269172e-70
-1.393297099594118e-69
-1.137054579989598e-68
-7.697466718046592e-68
-4.359154562114368e-67
-2.076298091556799e-66
-8.342308210414254e-66
-2.830072035430141e-65
-8.102819509175088e-65
-1.957469481373684e-64
-4.009190186796294e-64
-7.147904781250453e-64
-1.224529409829077e-63
-2.56130222770499e-63
-7.896736016346444e-63
-3.086586277749497e-62
-1.256296178986571e-61
1
1
1
1
1
1
1
1
1
1
1
0.9999999950969988
1
1
1
0.9999999993210784
0.7107929363417467
0.8016596885388831
0.9191365589972289
0.9991168129926341
0.03922611710768311
0.06288533996581887
0.09813025345737605
0.145432594436568
5.428071062398878e-20
1.901776984987616e-19
-6.449153978957296e-20
4.055799208993287e-20
6.408203883510602e-10
4.854833859388094e-10
3.799248438812547e-10
1.85885715034415e-10
4.778276343018983e-11
4.873694433792583e-11
5.358979883104838e-11
5.392399941147937e-11
6.007358907834225e-11
7.73182548907798e-11
8.585562478790552e-11
1.3632658047474e-11
5.640978042444302e-11
7.872793130113797e-11
6.429430021930647e-11
1.404929281374465e-11
1.455310205509858e-11
1.745861916647456e-11
1.404929281374465e-11
1.3632658047474e-11
7.284459166225612e-12
1.215559498758316e-11
2.091933110722271e-11
1.546705428539355e-11
1.339959918173915e-11
2.267681388172877e-11
2.72803709726746e-11
2.258634264279149e-11
1.716634117923278e-11
2.640317086243047e-11
2.671668531018173e-11
1.476843190156339e-11
1.622216403019961e-11
2.02342899907519e-11
1.800284792774774e-11
8.913535443363776e-12
7.129235975844677e-12
8.790113734840825e-12
9.251955579355192e-12
6.461602628962764e-12
2.263169804015191e-12
3.2833347018273e-12
4.544323389884397e-12
5.447217070366141e-12
4.251349186761032e-13
9.183487792306422e-13
1.411632407673153e-12
1.771281735170866e-12
4.929986001518345e-14
1.419901900223514e-13
2.619802627441949e-13
4.503980054227883e-13
2.600761306931806e-19
2.744299169451731e-16
1.02428979703129e-14
6.133644569863602e-14
1.041039166856913e-22
7.386555697868579e-31
1.764501928108554e-31
1.061741449563515e-31
1.010818609435979e-24
1.928770447457476e-25
1.623376353813009e-26
-6.688155507662661e-36
4.420125815920737e-27
3.296433425690792e-27
5.133496032477314e-28
3.398425405712486e-42
2.014299121772446e-31
3.098251178152434e-31
1.119994418954484e-31
-3.202615299678871e-47
-2.016373267199402e-32
-1.231012835660214e-32
-7.130964594164883e-33
-3.759085623119026e-33
-2.427433529343046e-33
-1.654673707195464e-33
-1.084823568718053e-33
-6.910845354868403e-34
-2.030532192700253e-34
-1.494026350652269e-34
-1.04714444126242e-34
-7.052601324399656e-35
-1.265842442855386e-35
-9.998463726195155e-36
-7.45765888000362e-36
-5.289495535979085e-36
-6.042615695101793e-37
-5.118659070039668e-37
-4.064037191319029e-37
-3.038674418429366e-37
-2.276709995289485e-38
-2.066696518119666e-38
-1.746319207699623e-38
-1.37737656700477e-38
-6.800384931921547e-40
-6.601664032475366e-40
-5.932278853048567e-40
-4.9414968581721e-40
-1.629257426402424e-41
-1.694656227829886e-41
-1.624977039736169e-41
-1.437404509643766e-41
-3.169490152513865e-43
-3.54272375721398e-43
-3.641691976053771e-43
-3.446675531311612e-43
-4.971506579218289e-45
-5.985273196817987e-45
-6.627558297856019e-45
-6.774084487045458e-45
-6.271402327521909e-47
-8.151566807240778e-47
-9.781056303931374e-47
-1.092548031923278e-46
-6.326007004288952e-49
-8.910673538596925e-49
-1.168573438537413e-48
-1.448326404627836e-48
-5.059296604323794e-51
-7.77959325901245e-51
-1.128021513868782e-50
-1.57421858158668e-50
-3.114870865790752e-53
-5.265333500845192e-53
-8.524152419356404e-53
-1.351788814018518e-52
-1.393011097275102e-55
-2.605984227284736e-55
-4.744267422329768e-55
-8.574178193572237e-55
-4.014108345338183e-58
-8.355629384166114e-58
-1.714881807060763e-57
-3.516543376025862e-57
-4.958272529664046e-61
-1.163474207908091e-60
-2.711847934839558e-60
-6.315984031718821e-60
1
0.4729957391779914
0.0002401603973734161
0.007017224896850621
6.21804869541315e-13
6.216796348172311e-13
1.330372020325295e-11
4.450417179067671e-11
5.264403980575851e-11
1.084539239225093e-11
1.841355865837162e-13
8.938076412257573e-17
1.325926556215063e-21
1.496003922311822e-24
3.758866471210952e-27
2.769627942575961e-31
1.887085440256948e-36
-5.429295457291127e-39
-3.708701545425857e-39
1
0.984118677360052
0.9538108440344563
0.7820005124075557
0.1766576548639502
0.01280069369244531
1.419784207662346e-11
1.514988546637662e-11
1.726571121996426e-10
1.997810001731162e-10
4.83664374026259e-11
8.106646547358558e-13
3.869198074929941e-16
5.047415637622787e-21
5.823776419910281e-26
8.262163389201182e-31
2.421519944393271e-35
-2.536483393015017e-53
-1.391813013348315e-38
0.9999998981952372
0.9999999996575655
0.9999999994952293
0.9997571491322677
1
0.8494380997264721
0.1863121470536479
0.004118131240813559
1.864592141039203e-10
4.728481690531655e-10
4.595483605346442e-10
1.009449680231681e-10
1.801558223982376e-12
1.043884238543986e-15
1.372246227982781e-20
1.306124509295339e-25
8.055290097078054e-31
3.002538520234141e-36
-1.24942533209916e-37
0.9999999998777939
0.9999998308360724
0.9999997381344743
0.9999999999916159
1
1
1
0.6964746048141616
0.06817861516481896
5.051670863965241e-10
7.785600829622232e-10
6.781714984591447e-10
1.349445326544482e-10
2.050612436151779e-12
8.092825012687663e-16
8.417826077714835e-21
6.014091513989711e-26
2.487317489643833e-31
4.234478034366628e-37
1
1
1
1
0.9999999794429227
0.9999999728849832
0.9999999960217331
1
0.8364089350845173
0.1244880831077615
6.663787152074614e-10
6.177009768028739e-10
5.675955138819392e-10
1.221225166087655e-10
1.883517839662637e-12
6.465993560182875e-16
5.276788910638545e-21
2.577909961832199e-26
5.288395260048556e-32
0.2147537606882318
0.3106969737117113
0.5641179381085325
0.9317510247877843
1
1
1
1
1
0.7873986083920249
0.07737705602407889
4.598597351601153e-10
4.061949076739109e-10
3.625575176632962e-10
6.235993968799674e-11
6.744730278637995e-13
1.548577971759631e-16
9.292736928357372e-22
2.123451208064388e-27
1.833090467136403e-19