/*--------------------------------*- C++ -*----------------------------------*\
| =========                 |                                                 |
| \\      /  F ield         | OpenFOAM: The Open Source CFD Toolbox           |
|  \\    /   O peration     | Version:  2206                                  |
|   \\  /    A nd           | Website:  www.openfoam.com                      |
|    \\/     M anipulation  |                                                 |
\*---------------------------------------------------------------------------*/
FoamFile
{
    version     2.0;
    format      ascii;
    arch        "LSB;label=32;scalar=64";
    class       volScalarField;
    location    "0.3";
    object      p;
}
// * * * * * * * * * * * * * * * * * * * * * * * * * * * * * * * * * * * * * //

dimensions      [1 -1 -2 0 0 0 0];

internalField   nonuniform List<scalar> 
2268
(
97399.77502384255
97400.36757110796
97397.89716199609
97393.71853706196
97388.1007190274
97381.09051433558
97372.87262854817
97363.78317289519
97354.26007760632
97344.84587176627
97336.21597928458
97329.20448481846
97324.82293192665
97324.27191510949
97328.93971678815
97340.37209948017
97360.17728069324
97389.92772863137
97430.73268518085
97482.49907978701
97542.72667124739
97603.29227525495
97662.8576232364
97339.77376695462
97340.34565457354
97337.84747757779
97333.65966950079
97328.01425640367
97320.96305175485
97312.70237940097
97303.56776486814
97293.99436956689
97284.52387374273
97275.83114346288
97268.74837539707
97264.2825292159
97263.62446323832
97268.14297105547
97279.34932561655
97298.87885804246
97328.2372856678
97368.60425603852
97420.05255617989
97480.50840000092
97542.03643386906
97604.61224625935
97279.20415308507
97279.76000661586
97277.23573355719
97273.04091776077
97267.35875955486
97260.24684036984
97251.91426577509
97242.69452419372
97233.01765688349
97223.42228314004
97214.58031976651
97207.31900407387
97202.6365466542
97201.7084846271
97205.87791582003
97216.61619390851
97235.43523167133
97263.84653792583
97302.99877038602
97352.96971009264
97412.00324263849
97472.29594186784
97536.52014309776
97217.95544520694
97218.47273272111
97215.89069497123
97211.65338230217
97205.89227381915
97198.67053317782
97190.20841461401
97180.83637052999
97170.97821127747
97161.16800644794
97152.07301841075
97144.51339063336
97139.47533970974
97138.11344866069
97141.73370633346
97151.73905996718
97169.534936663
97196.51253650359
97233.69622974937
97281.02025504924
97336.87876267034
97393.60097985959
97458.17621574813
97156.09691997389
97156.57254220689
97153.91529750021
97149.60882050208
97143.73578045052
97136.36388083389
97127.72138172244
97118.13452519578
97108.01995682179
97097.90562868462
97088.45227031899
97080.47077606822
97074.93244391389
97072.96665034376
97075.83633302532
97084.87110573849
97101.32233459748
97126.38342365019
97160.82822497355
97204.21234880267
97254.71324714854
97304.45197747656
97366.22824798399
97093.61410096547
97094.06918984924
97091.3375052499
97086.94951308407
97080.94565645733
97073.39477950748
97064.52890580668
97054.66852072308
97044.22178426484
97033.70843748485
97023.78014702356
97015.2356671876
97009.02759025007
97006.25491329374
97008.13020564495
97015.89983183394
97030.62689719033
97053.25730952744
97084.20298634941
97122.28859002446
97164.69146259627
97201.93079917153
97252.25915555134
97030.13399837779
97030.59250394069
97027.79278226603
97023.31624703715
97017.17441432337
97009.43156971376
97000.31832236075
96990.14796421274
96979.31914810074
96968.34178663472
96957.85651389793
96948.64753541256
96941.64538702343
96937.9148522621
96938.61460122734
96944.91149379463
96957.63881665262
96977.32167889251
97003.97911408104
97035.28962587906
97066.20054389478
97082.39105247293
97099.73936821146
96965.00856559795
96965.39321472391
96962.47485436584
96957.83059963025
96951.47638531002
96943.46905526804
96934.03184319983
96923.47076108916
96912.17675079624
96900.65195131391
96889.5280509
96879.57567513197
96871.70165906097
96866.93294015453
96866.36509417965
96871.07198872083
96881.71184763328
96898.19023569969
96920.05764294902
96943.4474531881
96959.43346708507
96943.20771057552
96875.31051679933
96075.67438420476
96075.73661253226
96075.73620113921
96075.8273294618
96075.93858421339
96076.05114447966
96076.14297862965
96076.20464451419
96076.22853111685
96076.21024451269
96076.15505550485
96076.07422266243
96075.98036641192
96075.88447431657
96075.79509305269
96075.71838554833
96075.65856001368
96075.61831320342
96075.59918258691
96075.61047903189
96075.68462418771
96075.67027589714
96075.76870210428
96075.8830313439
96075.99866586432
96076.09140044925
96076.15396185048
96076.17860436343
96076.16001471941
96076.10361085235
96076.02113535242
96075.92559153108
96075.82818776046
96075.73756475521
96075.65989439235
96075.59936616129
96075.55866964876
96075.53941392967
96075.53719804634
96075.6377925758
96075.593461878
96075.70862704089
96075.82876604497
96075.95090977193
96076.04529264639
96076.10983673802
96076.13609628029
96076.11680559564
96076.05778193509
96075.97184367714
96075.87278522683
96075.77223406386
96075.67899573671
96075.59925015911
96075.5371783594
96075.49547493021
96075.47582344284
96075.45269910894
96075.59499574703
96075.50583010585
96075.64779867561
96075.77540408472
96075.90802635759
96076.00437017894
96076.07208498662
96076.10111457774
96076.08075337538
96076.01758117392
96075.92625780369
96075.82182443562
96075.7164871844
96075.61924610025
96075.53628579577
96075.4717973412
96075.42850101019
96075.40817935465
96075.35442065405
96075.55436587131
96075.40453518105
96075.58595892086
96075.72199167889
96075.87046343251
96075.96834240119
96076.0405735856
96076.07400051813
96076.05214066719
96075.98300718731
96075.88418836131
96075.77245142079
96075.66068966451
96075.55807347962
96075.47076957169
96075.40299462121
96075.35751935869
96075.33625504364
96075.2324211332
96075.50514854127
96075.28264672245
96075.52086058199
96075.66744106641
96075.83909879753
96075.93658095531
96076.0150899759
96076.0553886437
96076.03146627036
96075.95407522778
96075.84535164325
96075.72428739278
96075.60447145691
96075.49513166182
96075.40236939232
96075.33044422118
96075.2822083815
96075.2597312857
96075.12155665633
96075.42018515478
96075.12803035876
96075.44778286593
96075.61248331273
96075.81414936288
96075.90684961058
96075.99401241644
96076.0453499555
96076.01895335116
96075.93058205616
96075.80931839925
96075.67682950567
96075.54735426683
96075.4299787807
96075.33065800581
96075.25372236583
96075.20214820941
96075.17818888812
96074.00440128987
96075.27496644274
96074.69898196754
96075.36206965455
96075.54935522276
96075.80156150076
96075.87730401305
96075.97385412588
96076.0417390004
96076.01322584377
96075.91133220706
96075.775126412
96075.62930819958
96075.48871159127
96075.36205143238
96075.25508089094
96075.17227424732
96075.11679900702
96075.09110144158
96862.04734195025
96862.19024745138
96859.11832527239
96854.14295436059
96847.37803368809
96838.872894981
96828.82615338331
96817.52683419239
96805.35208948357
96792.79100400841
96780.46045302747
96769.10680447271
96759.59035770768
96752.86597239356
96749.90263991384
96751.56722550743
96758.2697153152
96769.43642454868
96782.93983375479
96792.02560336035
96778.12077983156
96684.94765359777
96238.4182361594
96721.00821043439
96720.9696133769
96717.6548048173
96712.25036943505
96704.85661622758
96695.51922139914
96684.40011971934
96671.73365463568
96657.85380796305
96643.21781626028
96628.41971179414
96614.17841363963
96601.27706716716
96590.55820046406
96582.85317532063
96579.06021842295
96579.75134605022
96583.72672146019
96588.22337180104
96586.1977012545
96561.96575922033
96493.02174727657
96352.72208938903
96577.10878569564
96576.77817360091
96573.0191871823
96566.96484585914
96558.67342777063
96548.17375355656
96535.57338784843
96520.99931231861
96504.69218015106
96487.05475854871
96468.67460586868
96450.31614134226
96432.724883637
96416.61070783874
96402.53333157534
96392.09479082872
96387.54915314095
96389.94621043847
96391.91862948911
96391.55629765113
96382.55286029323
96354.27373431098
96299.56565607493
96430.06042623265
96429.42345148859
96425.10468656445
96418.20505823748
96408.73621423366
96396.69741561636
96382.11178428201
96364.86336792372
96345.08343945327
96323.06741939108
96299.34820143828
96274.81778941286
96250.30896216471
96227.52377625763
96205.76683543136
96185.84833915294
96169.76559209765
96160.9860199603
96165.18476832102
96172.98704695189
96183.42896237658
96186.6278383116
96173.2623659845
96278.6523274855
96277.69875834497
96272.68624855795
96264.71428648665
96253.76835375387
96239.85070003354
96222.94551215289
96202.7040781073
96180.88234359813
96157.82109198136
96134.41127544123
96111.9243157069
96092.79921005169
96081.20583685359
96072.6147978802
96066.05477383114
96062.23138339343
96060.70463633389
96061.24254374331
96063.14730147684
96067.8624227422
96076.09918629963
96085.00744313937
96135.22131459361
96134.25986476372
96129.95069235355
96123.42051471352
96114.9110578495
96104.81681021802
96093.81397792191
96083.9831804377
96074.84938018474
96066.3161241926
96059.05949025063
96053.39364563298
96050.95253885482
96050.69321057652
96050.70603874588
96050.8052664265
96051.08752075286
96051.31093178636
96051.13477214111
96050.80105412556
96050.61388356588
96050.5076863935
96050.46158705077
96061.99572834358
96061.50966718241
96060.0847087517
96058.02224045467
96055.57204091831
96053.01041014204
96050.87195343331
96050.68606623731
96050.56627059098
96050.547666224
96050.53610830408
96050.54896236952
96050.55943383864
96050.51977465249
96050.48330403744
96050.47829306657
96050.54575702354
96050.63610192343
96050.52000638224
96050.31979010886
96050.08988437333
96049.79963765935
96049.32943106419
96050.46704484387
96050.47289864882
96050.46805466399
96050.46797157153
96050.47103171221
96050.48125645253
96050.51814904726
96050.46981528206
96050.41044313298
96050.37417466538
96050.34954386788
96050.33605170254
96050.32721940766
96050.30386333697
96050.26561953433
96050.21673632147
96050.14393234662
96050.09124282149
96050.00210769419
96049.8981024535
96049.76982230581
96049.57609866426
96049.26064180685
96050.30140306396
96050.30527257777
96050.30423117783
96050.30394693716
96050.30390385263
96050.30384794829
96050.3017324929
96050.27319242168
96050.23195640542
96050.19272579829
96050.15759447543
96050.12822008824
96050.10696310751
96050.08627031451
96050.05239157823
96049.99889106548
96049.92029780654
96049.84156310986
96049.76197238361
96049.66384129408
96049.5315828934
96049.34378046975
96049.07496057401
96050.14670538189
96050.14913476849
96050.14842185662
96050.14653890289
96050.14253462844
96050.13457024608
96050.11928048395
96050.09006216937
96050.05073951067
96050.00839643473
96049.96472249136
96049.92321998977
96049.89386772686
96049.87390737594
96049.85017461168
96049.80914694624
96049.74635083519
96049.66782485427
96049.57442764124
96049.45992212059
96049.31491737437
96049.12199125186
96048.86479233694
96049.99824437362
96049.99909925261
96049.99717051862
96049.99278574795
96049.98461567776
96049.97036991471
96049.9472926327
96049.91307375835
96049.87044863081
96049.82297849246
96049.77039186742
96049.7213095809
96049.68993719394
96049.66947786558
96049.64618902149
96049.61350909161
96049.56390591434
96049.4945420319
96049.39981401799
96049.27703683633
96049.12062279186
96048.9153882563
96048.64869712149
96049.85308294583
96049.85246272916
96049.84881143644
96049.84174202703
96049.82973242282
96049.81036102073
96049.78126313791
96049.7413920035
96049.69293592099
96049.63757315454
96049.57841738535
96049.52600000212
96049.49371736155
96049.47085909828
96049.44668930552
96049.42407205247
96049.39201207411
96049.33230244441
96049.23764027514
96049.10804574193
96048.93874925797
96048.71536610661
96048.42553709203
96049.71064404958
96049.70876133954
96049.70349458861
96049.69405443601
96049.67891346474
96049.65565206681
96049.6222115093
96049.57804962796
96049.52462367153
96049.46323367576
96049.40130309596
96049.34983559664
96049.31524311009
96049.29204466629
96049.2770562854
96049.26405701725
96049.23660720809
96049.17734034661
96049.08067293679
96048.94464023309
96048.7630238689
96048.52088115155
96048.20385053109
96049.57136533939
96049.56854650607
96049.5620797764
96049.55091170884
96049.53364294229
96049.50796365457
96049.47223698279
96049.42643849298
96049.37245300329
96049.31280525493
96049.25395948105
96049.20819045865
96049.17564636985
96049.15403254652
96049.142264471
96049.1278727829
96049.09301404038
96049.02858182481
96048.92814862297
96048.78658994057
96048.5954425708
96048.33802781288
96047.99737358179
96049.43598385633
96049.43256502347
96049.42547027514
96049.4133579185
96049.39507237166
96049.36850483585
96049.33263412394
96049.28808702565
96049.23700413739
96049.1832813353
96049.13266017727
96049.09298906359
96049.06412181766
96049.04403946933
96049.02846667587
96049.00296853382
96048.95730861955
96048.88660681027
96048.78291546929
96048.63845553804
96048.44257543834
96048.1766098543
96047.82234718338
96049.3049875037
96049.30124883064
96049.29401792718
96049.28168467044
96049.26338531484
96049.23738359092
96049.20323405675
96049.1620050682
96049.11613560274
96049.06931777159
96049.02627432343
96048.99087253324
96048.96317404353
96048.94085575419
96048.91740487638
96048.88267181339
96048.82962322596
96048.7543724288
96048.64937185364
96048.5056839063
96048.31110409449
96048.04587510736
96047.69238963131
96049.17838448785
96049.17453834636
96049.16743059993
96049.15540044542
96049.1378357072
96049.11345501094
96049.08220643761
96049.045223844
96049.00477005736
96048.96391809292
96048.92594081569
96048.89276872296
96048.86403864037
96048.83706942019
96048.80677380523
96048.76657717642
96048.71088611845
96048.63447875317
96048.53071415023
96048.39158566702
96048.20451054811
96047.94980645228
96047.61289978304
96049.05578264281
96049.05195296496
96049.04511871988
96049.03368606853
96049.01727462141
96048.9949525269
96048.96683262363
96048.93393407187
96048.8981477331
96048.86181046665
96048.82704713203
96048.79482840463
96048.7646593778
96048.73432741741
96048.69999381965
96048.65696577847
96048.60063414811
96048.52604139813
96048.42720065058
96048.29642504107
96048.12179598407
96047.88701875925
96047.58014833996
96048.93658751239
96048.93282450634
96048.92633427567
96048.91561624175
96048.90048674817
96048.8802619471
96048.85509564109
96048.82581080345
96048.79388004127
96048.76102096341
96048.72863730235
96048.69731244243
96048.66655982826
96048.63462187011
96048.5986206065
96048.55503868498
96048.50003472097
96048.42925806854
96048.33754560325
96048.2180759539
96048.06035915777
96047.85243400624
96047.58943236974
96048.8201488979
96048.81648357092
96048.81036138412
96048.80039030507
96048.78654099915
96048.76830625368
96048.74583062329
96048.71974414811
96048.691143594
96048.66128881801
96048.63116424248
96048.60117760206
96048.57090756598
96048.53899988199
96048.50329217176
96048.4610697991
96048.40918912961
96048.34403091372
96048.26134971641
96048.15541233994
96048.01760135188
96047.8405035952
96047.62693643733
96048.70591169642
96048.70237714845
96048.6966385819
96048.68742442694
96048.67481995044
96048.65845069838
96048.63844341862
96048.61526858632
96048.58973514264
96048.56276351218
96048.5350946502
96048.50703392037
96048.47826021716
96048.4477589171
96048.41390421661
96048.37459612012
96048.32733102095
96048.26923414263
96048.19696917041
96048.1059329228
96047.98948354012
96047.84419674546
96047.67840541816
96048.59346123274
96048.59009621294
96048.58476605141
96048.57632493621
96048.56493922402
96048.55034008466
96048.53264403653
96048.51220520973
96048.48962241726
96048.46558169916
96048.44065229088
96048.41508493561
96048.38866205773
96048.36064682722
96048.32983275961
96048.29462416237
96048.25309666636
96048.20307080305
96048.14204530025
96048.06648983734
96047.97160422499
96047.85699523035
96047.73383777702
96048.48249838891
96048.47934338513
96048.47445710767
96048.46681733495
96048.45664426679
96048.44375496898
96048.42826524856
96048.41045304079
96048.39077169953
96048.36974278325
96048.34781224238
96048.3251985728
96048.30177709613
96048.27703785649
96048.25011384625
96048.21983437882
96048.18478577852
96048.14340259274
96048.09391108061
96048.03373566024
96047.9596373259
96047.87326050871
96047.78663473984
96048.37279031461
96048.3698821859
96048.36547920259
96048.35867523328
96048.34972241733
96048.33850701552
96048.32514991704
96048.309882642
96048.29306167456
96048.27509493337
96048.25634108501
96048.23699940341
96048.21702385801
96048.19608934122
96048.17360751583
96048.14876558651
96048.1205867712
96048.08802526069
96048.04991599321
96048.00448973145
96047.94974262881
96047.8885356359
96047.83260075598
96048.26412860666
96048.26149633105
96048.25761127322
96048.25167320232
96048.2439491316
96048.23437979275
96048.22309275213
96048.21029224776
96048.19627185815
96048.18136330604
96048.16586644594
96048.14997175793
96048.13369933807
96048.1168738152
96048.09913415437
96048.07996362464
96048.0587475815
96048.03486423589
96048.00763942068
96047.97595407722
96047.93872884309
96047.89944028645
96047.86894419434
96048.15630588621
96048.15396832135
96048.15062447163
96048.14556911113
96048.13907146658
96048.13111417335
96048.12183052448
96048.11140873207
96048.10010213566
96048.0881931138
96048.07594467186
96048.06354720533
96048.05107694551
96048.03847891893
96048.02557430766
96048.01208508971
96047.99768742305
96047.98209392146
96047.96501222702
96047.94582612354
96047.92411748278
96047.90357584158
96047.89394376958
96048.04910725425
96048.04707290069
96048.04427939685
96048.04010600122
96048.03481529713
96048.02842162999
96048.02106217245
96048.01291546933
96048.00420932533
96047.99519526851
96047.98611525512
96047.97716577313
96047.9684705765
96047.9600703544
96047.95192947985
96047.94395723108
96047.93605585949
96047.9281926282
96047.92036111132
96047.91231925825
96047.90410191845
96047.89935733248
96047.90666078593
96047.94230991347
96047.94057814543
96047.93833040213
96047.93502080101
96047.93089945537
96047.9260044524
96047.92047499915
96047.91448354146
96047.90824170105
96047.90198227369
96047.89593649437
96047.89031023103
96047.88526676697
96047.88092153083
96047.87734894059
96047.87460108989
96047.87275020483
96047.87195021151
96047.87240011567
96047.87412562147
96047.8774571614
96047.8858526487
96047.90676520318
96047.83568717513
96047.83425003476
96047.83253179851
96047.83005288886
96047.82704748088
96047.82357126489
96047.819763937
96047.81579375999
96047.81186192976
96047.80819000854
96047.80500455924
96047.80252163934
96047.80093644804
96047.80042159604
96047.80113399954
96047.80323127244
96047.8069086789
96047.81245094551
96047.82019729438
96047.83035670212
96047.84343970477
96047.86263471936
96047.89436446223
96047.72901372057
96047.72785772843
96047.72664356824
96047.72495048628
96047.72299498721
96047.72084565698
96047.71864150098
96047.71654755335
96047.71475799631
96047.71348750957
96047.71296103182
96047.7134038862
96047.71503598285
96047.71807235647
96047.72272981038
96047.72924105829
96047.73788647809
96047.7490372395
96047.76312190433
96047.78046787395
96047.8016835008
96047.82965456122
96047.86988683985
96047.62207062538
96047.62117838713
96047.62043614053
96047.61947544073
96047.61849461318
96047.61757153439
96047.61684365754
96047.61647319049
96047.6166492394
96047.61758193809
96047.61949572383
96047.62262321053
96047.62720231531
96047.63347813116
96047.64170910083
96047.65217899514
96047.66522379624
96047.68126714672
96047.70078831408
96047.72418446478
96047.75210461342
96047.78712751922
96047.83395881575
96047.51464957616
96047.51400113384
96047.51369407732
96047.51340662532
96047.51331924187
96047.51351633621
96047.51413320546
96047.51532930511
96047.5172896369
96047.52022082273
96047.52434676938
96047.52990500737
96047.53714562328
96047.54633378304
96047.55775523548
96047.57172617454
96047.58861561063
96047.60887425627
96047.63300393925
96047.66143652338
96047.69482364586
96047.73545047756
96047.78733600686
96047.40655604418
96047.40612993039
96047.40621855254
96047.40654189428
96047.40726340571
96047.40847192475
96047.41030019344
96047.41290482633
96047.41646712026
96047.42119046558
96047.42729762166
96047.43502865675
96047.4446409456
96047.45641188217
96047.47064355551
96047.48767054238
96047.50787817276
96047.53172590386
96047.55971822636
96047.592297301
96047.630093813
96047.67512347568
96047.7308233692
96047.29761143983
96047.2973854867
96047.2978288663
96047.29869907278
96047.30014369005
96047.30225437265
96047.30516107292
96047.30901743563
96047.31400118336
96047.32031243246
96047.32817203044
96047.33782049723
96047.34951858588
96047.36354986686
96047.38022449463
96047.39988512808
96047.42292167616
96047.44979001697
96047.4809842095
96047.51694049872
96047.55825513558
96047.60670327618
96047.6652330115
96047.18765437507
96047.18760632603
96047.18836320088
96047.18971629048
96047.19179860651
96047.19470338439
96047.19855767944
96047.2035120701
96047.20974075585
96047.21744046624
96047.22682946928
96047.23814709682
96047.25165452326
96047.26763702747
96047.28640687771
96047.30830766773
96047.33372610099
96047.36310674594
96047.39692528332
96047.43560199303
96047.47969252626
96047.53076254988
96047.59135391137
96047.07654102315
96047.07664904221
96047.07767866419
96047.07945170853
96047.08208794773
96047.08568124552
96047.09035576131
96047.0962589917
96047.10356168468
96047.11245711071
96047.12316047349
96047.13590874894
96047.15096148119
96047.16860264391
96047.18914270842
96047.21292159532
96047.24031792917
96047.27176058717
96047.30770306637
96047.34854487362
96047.3948000338
96047.44785508396
96047.5099173488
96046.9641449112
96046.96438799606
96046.96565078148
96046.96778269339
96046.97089156728
96046.97507115088
96046.98044280118
96046.98715102303
96046.99536325908
96047.00526936738
96047.01708126192
96047.03103289336
96047.04738094239
96047.06640625262
96047.08841516075
96047.1137413012
96047.14275283966
96047.17586146166
96047.21349762502
96047.25603844946
96047.3039586408
96047.35849520905
96047.42158357409
96046.85035774177
96046.85071587787
96046.85217356624
96046.85460528549
96046.85810824536
96046.86277550903
96046.86872579766
96046.87610079412
96046.88506484743
96046.89580458231
96046.90852865763
96046.92346778231
96046.94087525157
96046.96102797017
96046.98422715327
96047.01079922479
96047.0411014506
96047.0755287825
96047.11448975727
96047.15833986113
96047.20751922073
96047.2631435506
96047.32693098843
96046.73509339282
96046.73554738736
96046.73716267373
96046.73983661513
96046.74365725207
96046.74871660376
96046.75513099685
96046.76303952452
96046.77260374681
96046.78400737853
96046.79745609789
96046.81317754056
96046.83142167424
96046.8524614614
96046.87659301906
96046.90413580849
96046.93543705839
96046.97087689451
96047.01084464157
96047.05567669039
96047.10578497523
96047.16219075567
96047.22644244511
96046.61828830455
96046.61882047178
96046.62055822283
96046.62341892009
96046.62748287605
96046.63284099572
96046.63960767419
96046.64791990936
96046.65793700521
96046.66984030612
96046.68383304204
96046.70014029676
96046.71900924777
96046.74070952831
96046.76553293839
96046.79379310939
96046.82582911081
96046.86200930142
96046.90270766399
96046.94824508198
96046.99901235363
96047.0559617932
96047.1205163859
96046.49987279663
96046.5004677753
96046.50229775636
96046.50529408835
96046.50953063541
96046.51509759025
96046.5221082083
96046.53069819232
96046.54102538916
96046.5532695734
96046.56763230149
96046.58433684726
96046.60362835118
96046.62577399432
96046.65106244077
96046.67980321719
96046.71232984027
96046.74900270451
96046.7901850765
96046.83618687677
96046.88738570691
96046.94468971452
96047.00943834288
96046.37973369054
96046.38037158674
96046.38225481453
96046.38532537264
96046.38965518041
96046.39533500744
96046.40247757711
96046.41121767025
96046.42171208453
96046.43413955896
96046.44870067529
96046.46561778631
96046.48513511178
96046.50751878385
96046.53305611282
96046.56205478164
96046.59484572038
96046.63178551869
96046.67323212004
96046.7194902592
96046.77093211819
96046.82844317214
96046.89331078234
95342.38582355516
95386.61912424216
95662.35567211715
95856.52646643484
96183.26370105857
96128.90086868245
96128.97392840625
96129.87496897168
96182.39431796603
96100.92044048868
96059.52345506493
96047.21574761652
96118.97142331822
96081.8254719962
96064.63280144725
96058.62539535377
96084.87711017614
96081.12653316796
96078.92905401053
96075.04250364302
96051.07911442804
96052.26834241761
96054.38410814872
96057.07923966883
96048.92022378482
96048.70053406029
96048.56112703888
96048.46434688379
96048.9056436938
96048.64538570988
96048.42741393711
96048.23100076181
96048.75487790249
96048.5221271781
96048.31747846959
96048.12017221595
96048.55945520014
96048.33414085681
96048.12503424025
96047.91279827902
96048.33960211187
96048.1097091461
96047.88695578078
96047.65189933359
96048.10070542694
96047.85902499349
96047.61453882481
96047.34951871342
96047.86196300716
96047.60669128686
96047.33707048988
96047.04075312075
96047.64305006663
96047.37608294451
96047.08443981485
96046.76382177309
96047.46275267047
96047.18936086664
96046.88545106904
96046.5527613642
96047.33576501241
96047.06501804486
96046.76290741604
96046.43177665881
96047.27082502148
96047.01440019617
96046.72798625872
96046.41062932157
96047.271183177
96047.04141636143
96046.78319868361
96046.48995683731
96047.33019076609
96047.13821957262
96046.92097752081
96046.66432370531
96047.42279746108
96047.27296351531
96047.10218104815
96046.89058445813
96047.52513568634
96047.41379418249
96047.28614247359
96047.1210015688
96047.62362814078
96047.54407781341
96047.4522706995
96047.32885214614
96047.71155137834
96047.65740295591
96047.59441509444
96047.50639368936
96047.78586174564
96047.75192239738
96047.71187893856
96047.65269375072
96047.84491881036
96047.82702020423
96047.80512708775
96047.76887716806
96047.88801813385
96047.88281579064
96047.87521382152
96047.85699734952
96047.91504453163
96047.91981389135
96047.9233563484
96047.91915511483
96047.9263680726
96047.93890794407
96047.95106665856
96047.95765535127
96047.92266766373
96047.94119472124
96047.9599397839
96047.97475549605
96047.90485845563
96047.92794199257
96047.95165397516
96047.97266119788
96047.87396626806
96047.90046462862
96047.9278645008
96047.95347268227
96047.83108907621
96047.86010740054
96047.89020225368
96047.91918038852
96047.77730909492
96047.8081482913
96047.84016732326
96047.87156536113
96047.71366402737
96047.74578434009
96047.77913876227
96047.81223630482
96047.64113343337
96047.67412876601
96047.7083788634
96047.74263631618
96047.56059998844
96047.59416997258
96047.62899436592
96047.6640162034
96047.47284734635
96047.50677811251
96047.54195137734
96047.57745640528
96047.37855160113
96047.41269490619
96047.44806161955
96047.48385347275
96047.27826881027
96047.31252777591
96047.34799013227
96047.38394336221
96047.17246082316
96047.20678132813
96047.24228664763
96047.27832444763
96047.06145696163
96047.09580880021
96047.13132828393
96047.16740127173
96046.94537921171
96046.97976551573
96047.01530957168
96047.05141202279
96019.60301981033
96056.57527392791
96072.8783999096
96074.53282963343
96075.59618077967
96075.85758551233
96075.84455099569
96075.94545261966
96076.05273405577
96076.01815916492
96075.88751419367
96075.72298558117
96075.55339077406
96075.39377070079
96075.25123111391
96075.13110954106
96075.03816712
96074.97596165279
96074.94716179477
96102.84045731959
96056.57279881947
96017.73039720251
96030.01410291318
96063.15536946928
96074.8914576337
96075.85086706348
96075.96656415204
96076.18897538255
96076.0838360518
96075.86722175973
96075.64855250114
96075.44068515197
96075.25119946037
96075.08240203452
96074.93976051922
96074.82928352033
96074.75533378116
96074.72127968683
96044.0698349872
96034.46198188716
96032.73357593888
96041.4899790654
96047.68551174084
96034.38187899702
96063.50487860051
96075.76247094691
96076.71819658372
96076.21177716569
96075.82181778607
96075.5430484635
96075.30234790944
96075.08383477677
96074.88375278263
96074.71288948148
96074.58007565566
96074.49117663405
96074.45063949181
96055.63572637973
96054.18202425045
96049.68062459884
96053.26576510022
96061.20468239473
96059.32373565917
96060.5878228816
96040.41891251595
96073.81027026866
96076.32088491166
96075.67645805895
96075.34801454672
96075.11659518979
96074.88112675647
96074.64574789313
96074.44042388302
96074.28069060035
96074.17388511334
96074.12575173561
96070.24883250006
96065.58898661798
96053.23542861571
96048.40736197247
96046.65850908007
96046.4467399951
96056.08452916064
96062.18893481402
96079.68784199511
96071.17902962859
96075.47049404323
96075.20949469437
96074.91306754346
96074.6353524544
96074.35451600689
96074.10768698242
96073.91621208195
96073.78912594997
96073.73273457719
96061.23926145399
96066.98478665954
96077.53708112777
96087.82277589286
96062.05556335938
96041.08160598397
96040.30889626034
96046.92399378281
96068.25271457227
96091.80079346603
96072.62543028255
96074.85742947929
96074.82488652026
96074.36887588391
96073.99113699318
96073.69355227069
96073.46713671323
96073.31833958418
96073.25378992336
96048.34231332119
96048.21310192073
96047.73581819846
96047.62213852393
96051.90949445299
96077.91424373857
96046.53769325538
96030.37552442025
96043.58302080592
96063.23892533871
96072.70566381884
96073.75031767717
96074.75885089152
96074.08513384096
96073.51925108048
96073.16343336017
96072.9064616455
96072.73961097795
96072.66897611288
96047.94229295259
96047.55361007727
96047.01063848796
96046.73264088244
96046.82147972575
96046.47636695937
96048.84740137821
96040.02958386832
96026.79791786485
96041.15420477984
96055.9111553394
96074.03098255777
96074.75619428727
96073.57973980656
96072.85005556747
96072.46725792355
96072.20229175582
96072.03009244724
96071.95894655614
96047.83395490881
96047.42431989947
96046.93583247114
96046.54281328805
96046.37553826036