/*--------------------------------*- C++ -*----------------------------------*\
| =========                 |                                                 |
| \\      /  F ield         | OpenFOAM: The Open Source CFD Toolbox           |
|  \\    /   O peration     | Version:  2206                                  |
|   \\  /    A nd           | Website:  www.openfoam.com                      |
|    \\/     M anipulation  |                                                 |
\*---------------------------------------------------------------------------*/
FoamFile
{
    version     2.0;
    format      ascii;
    arch        "LSB;label=32;scalar=64";
    class       volScalarField;
    location    "0.3";
    object      p_rgh;
}
// * * * * * * * * * * * * * * * * * * * * * * * * * * * * * * * * * * * * * //

dimensions      [1 -1 -2 0 0 0 0];

internalField   nonuniform List<scalar> 
2268
(
97429.24441520282
97429.83696247415
97427.3665533655
97423.18792843554
97417.57011040593
97410.55990571943
97402.34201993745
97393.25256428985
97383.72946900608
97374.31526317047
97365.68537069208
97358.67387622755
97354.29232333413
97353.74130650713
97358.40910815333
97369.84149075655
97389.64667175511
97419.3971191922
97460.20207458219
97511.96846643675
97572.19605075597
97632.76163197526
97692.32218790267
97428.18194175327
97428.75382939387
97426.25565241251
97422.06784435445
97416.42243127973
97409.37122665512
97401.1105543263
97391.97593981845
97382.40254454091
97372.93204873764
97364.23931847411
97357.15655041796
97352.69070423261
97352.03263820909
97356.55114586238
97367.75749998158
97387.28703138928
97416.64545682221
97457.01242262448
97508.46071307993
97568.91653420283
97630.44450031818
97693.01007129384
97426.55111211567
97427.10696567592
97424.58269263644
97420.38787686321
97414.70571868242
97407.59379952139
97399.26122494681
97390.04148337894
97380.36461607287
97370.76924232265
97361.92727893218
97354.66596321647
97349.98350575683
97349.05544359906
97353.22487436685
97363.96315133462
97382.78218655722
97411.19348760589
97450.34571012757
97500.31663090771
97559.35012357908
97619.64271223905
97683.8438333715
97424.24118817698
97424.75847566826
97422.17643786722
97417.93912512434
97412.17801654141
97404.95627576728
97396.49415702814
97387.12211271621
97377.2639531773
97367.45374800761
97358.3587595999
97350.79913147114
97345.76108023505
97344.39918878801
97348.01944560571
97358.02479722793
97375.82066935037
97402.79825971521
97439.98193576151
97487.30593086706
97543.16438059611
97599.88644851654
97664.34459358314
97421.32144267655
97421.79706461231
97419.13981947975
97414.83334191765
97408.96030115279
97401.58840064963
97392.94590044035
97383.3590425647
97373.24447256909
97363.13014256167
97353.6767821793
97345.69528597603
97340.15695209558
97338.19115691807
97341.06083772836
97350.09560768999
97366.54683090298
97391.60790644365
97426.05268310674
97469.43676544182
97519.93758933585
97569.67613873332
97631.26481929791
97417.777388645
97418.23247633933
97415.5007900713
97411.11279574852
97405.10893642982
97397.55805616843
97388.69217840243
97378.83178835531
97368.38504594646
97357.87169227999
97347.94339428475
97339.39890687689
97333.19082284816
97330.41813932692
97332.2934258637
97340.06304821257
97354.79011157146
97377.42051140752
97408.36616181541
97446.45171914641
97488.85450840421
97526.09364505767
97576.19240841734
97413.23601321228
97413.69451530412
97410.89478877209
97406.4182473172
97400.27640686366
97392.53355274959
97383.42029372511
97373.24992129403
97362.42108798341
97351.44370645254
97340.95841141921
97331.74940978672
97324.74723853949
97321.01668127251
97321.71640983826
97328.01329166202
97340.74062478635
97360.42348990441
97387.08091719204
97418.39140121543
97449.30225078315
97465.49256598194
97482.57038808468
97407.04922746601
97407.43386821263
97404.51549621712
97399.87122652768
97393.51699361697
97385.50964072112
97376.07240049525
97365.51128376763
97354.2172315699
97342.69238285349
97331.56842709608
97321.61599255483
97313.74191632419
97308.97313435125
97308.40522448646
97313.11207620139
97323.75195515921
97340.23038999559
97362.09785624794
97385.48771640733
97401.47373626112
97385.24784785172
97317.23694955351
96075.70278970629
96075.76501805113
96075.76460665932
96075.85573500306
96075.96698977792
96076.07955006509
96076.17138422685
96076.23305011293
96076.25693670609
96076.23865008104
96076.18346104326
96076.10262816536
96076.00877187763
96075.91287974651
96075.82349845063
96075.7467909198
96075.68696536546
96075.64671854264
96075.62758791882
96075.69569548708
96075.76984070237
96075.75549241016
96075.85391869093
96075.96824802269
96076.08388265813
96076.17661727117
96076.23917863981
96076.26382110971
96076.24523139834
96076.1888274394
96076.10635183092
96076.01080789584
96075.91340401607
96075.82278091328
96075.74511046988
96075.68458217916
96075.64388562852
96075.62462988454
96075.67922537227
96075.77982003588
96075.73548931394
96075.85065469138
96075.9707943095
96076.092939298
96076.18732197396
96076.25186516684
96076.27812427869
96076.25883337579
96076.19980953704
96076.1138710902
96076.01481244547
96075.91426109672
96075.82102260411
96075.74127689029
96075.67920498989
96075.63750149606
96075.61784996437
96075.6515371745
96075.7938351488
96075.70466856008
96075.84663857607
96075.97425087908
96076.10688723915
96076.20322716917
96076.27093103209
96076.29995551766
96076.27959258413
96076.21641981394
96076.1250961202
96076.0206624655
96075.91532494653
96075.81808362524
96075.73512312605
96075.67063452776
96075.62733810372
96075.60701638251
96075.61007115411
96075.81008636742
96075.66018678133
96075.84162435497
96075.97771748221
96076.12629710855
96076.22413710461
96076.29628533548
96076.32966947714
96076.30779470888
96076.23865741848
96076.13983762106
96076.02810022682
96075.91633810704
96075.81372160766
96075.72641744264
96075.65864230241
96075.61316691597
96075.59190251117
96075.54511421155
96075.81954958205
96075.59514009159
96075.83345645478
96075.9804165583
96076.1526377238
96076.24985530421
96076.32793573584
96076.36798003246
96076.3439591413
96076.26654155354
96076.15781245867
96076.0367470101
96075.9169305394
96075.80759033895
96075.7148277443
96075.64290233358
96075.59466633588
96075.57218912167
96075.48495629648
96075.81191003957
96075.49747035724
96075.81799049566
96075.98444548476
96076.18806944518
96076.27950152586
96076.36507369571
96076.41530055336
96076.38841220753
96076.29989164465
96076.17859506162
96076.04610044794
96075.91662399416
96075.79924794933
96075.69992677217
96075.62299083921
96075.5714164875
96075.54745702198
96087.73957635426
96081.59280583532
96075.29692644288
96075.79500401925
96075.98719256483
96076.24295869788
96076.31428499483
96076.40634313763
96076.47057363871
96076.44017135256
96076.33761422396
96076.20124224338
96076.05539383041
96075.91479230583
96075.78813103751
96075.68115997182
96075.59835297547
96075.5428775019
96075.51717976721
97396.23948672814
97396.38237336118
97393.31042564104
97388.33502137868
97381.57005916414
97373.06486925879
97363.01806427649
97351.71866677458
97339.54382687714
97326.98262913349
97314.65195129802
97303.29816652789
97293.78157803798
97287.05703573802
97284.09351849387
97285.75793708423
97292.46036809364
97303.62716456102
97317.13069152906
97326.21661224549
97312.31195765917
97219.13893950669
96772.60899995812
97380.56401913473
97380.52537115222
97377.21049181273
97371.8059633895
97364.41209390835
97355.07455507442
97343.95527407108
97331.28858665633
97317.40846984963
97302.77216128939
97287.97370283166
97273.73203020464
97260.8303040896
97250.11099825197
97242.40533091714
97238.61165099339
97239.30230429542
97243.27786651706
97247.77494560365
97245.74991517013
97221.51873972721
97152.57546586826
97012.27611353906
97362.0268361349
97361.6961183594
97357.93697502915
97351.8824254565
97343.59074606287
97333.0907459977
97320.4899721729
97305.91539038009
97289.60764804293
97271.9695270832
97253.58862471889
97235.22941041413
97217.6374567718
97201.52243439296
97187.44332888418
97177.00237569702
97172.45453996945
97174.85099878788
97176.82462698857
97176.46404153292
97167.462599322
97139.18548520206
97084.47913475904
97340.33850304982
97339.70135002893
97335.38229515616
97328.48227618812
97319.01293996966
97306.97351992785
97292.38709974266
97275.1377028526
97255.3566268914
97233.33938036325
97209.61897119142
97185.08747859563
97160.57780509634
97133.45648220193
97094.50692200303
97046.13142628873
96999.77228753579
96970.86088929986
96989.68442520876
97043.23721040747
97093.68594646083
97096.88943867797
97083.52795083667
97314.28757805194
97313.33374989222
97308.32079455744
97300.34820685016
97289.40147684426
97275.4827677631
97258.5761235118
97237.37823712375
97200.59294722711
97138.1027980674
97043.98555563721
96919.68772558123
96756.89671461785
96583.4280855977
96432.78586111427
96317.0021095745
96236.94008510442
96197.80003111169
96212.92659835037
96261.75855580588
96353.56586547557
96505.29162771429
96692.68111179117
97199.02054149816
97191.21560080482
97167.40576341742
97126.83745544216
97066.24832262305
96981.71710485057
96869.61719214672
96697.67109793991
96522.18864733774
96356.47331685087
96215.99127107351
96104.02599626653
96052.36807528048
96052.1024100775
96052.1089577594
96052.17014530289
96052.38865559292
96052.58919780524
96052.4072557266
96052.09024145982
96051.92635926853
96052.79296271238
96070.53808839986
96297.13322874454
96286.28888631192
96255.92542857207
96211.72056451796
96159.21694847589
96104.54983135482
96052.44015980964
96052.24495208952
96052.10246990631
96052.06054119597
96052.02798552599
96052.02603103979
96052.04475411675
96052.00925142501
96051.94234511838
96051.91049084604
96053.19278074923
96054.84062444528
96054.71050165799
96052.50012618014
96051.48515213611
96051.22437318465
96050.77398019882
96052.11595307678
96052.11847921256
96052.10444930514
96052.09480693367
96052.08377298355
96052.07665983454
96052.09384435989
96052.0241598236
96051.94480787941
96051.89209386535
96051.85737903838
96051.8426940201
96051.85424641501
96051.84637393786
96051.80914449425
96051.75492135104
96051.87806594619
96052.35497527264
96051.7628581671
96051.35262267622
96051.20703761285
96051.01627875814
96050.7082809764
96051.96125222938
96051.95757982221
96051.94952008476
96051.93923454419
96051.92599896496
96051.91021245418
96051.8917698888
96051.84856442467
96051.79585947661
96051.74946637158
96051.71287306928
96051.68810958053
96051.68009242859
96051.67623146062
96051.66435984202
96051.61384017965
96051.52375185183
96051.41436870667
96051.3022218413
96051.18387016625
96051.04388892565
96050.85554850342
96050.59062180632
96051.84369471589
96051.83935795233
96051.83200419582
96051.82246540161
96051.80887060495
96051.79041078044
96051.76547177676
96051.72897219534
96051.68577511434
96051.64328412231
96051.60651519701
96051.56914027102
96051.54920562664
96051.54334313613
96051.55370167864
96051.58650157109
96051.48298401214
96051.33666008901
96051.21509702562
96051.08683328571
96050.93931394359
96050.74909677259
96050.49717750208
96051.76367267904
96051.75891827264
96051.7529419763
96051.74379018477
96051.7301460892
96051.71060660604
96051.68364852881
96051.64807116974
96051.60733692783
96051.59566538937
96051.6493339375
96051.53800678412
96051.46189355293
96051.49084536379
96051.69069402634
96051.68418619272
96051.49442547614
96051.26323056442
96051.14716556083
96051.01663833074
96050.85989104331
96050.65630769833
96050.39189494109
96051.71119583087
96051.70766837116
96051.70187529366
96051.69269969195
96051.67849949023
96051.65753626892
96051.62844076146
96051.59118833501
96051.54870049184
96051.62187990728
96051.62335586381
96051.51853514923
96051.52077772432
96051.71688437919
96051.70546037947
96051.62193136792
96051.31958365769
96051.19828048004
96051.09254256859
96050.96095083718
96050.79206402897
96050.56911815384
96050.28047455568
96051.67783809526
96051.6748793103
96051.66899287107
96051.65898037191
96051.64347894698
96051.62062353044
96051.58937534098
96051.5502697186
96051.50607713127
96051.50225325656
96051.53297759038
96051.39400792777
96051.53863420589
96051.67043879881
96051.50988142016
96051.27241299719
96051.21618778943
96051.1472358209
96051.0494116194
96050.91381313995
96050.73240688091
96050.49062547498
96050.17560815089
96051.65602892272
96051.65311993699
96051.64663955328
96051.63555794624
96051.61865893441
96051.59417405637
96051.56198078429
96051.52257009814
96051.48852009805
96051.42939151793
96051.38288574807
96051.34949479158
96051.33302980087
96051.30594231331
96051.25459820456
96051.21592622095
96051.17896661526
96051.11538201151
96051.01554940925
96050.87415345055
96050.68313083243
96050.4265980659
96050.08889054695
96051.64135959328
96051.6380699194
96051.63108983645
96051.61918518499
96051.60140168137
96051.57623981561
96051.54424092826
96051.50639308254
96051.46683831641
96051.41857850649
96051.37562829845
96051.34098354733
96051.30917743298
96051.26521345637
96051.22731074049
96051.20893608374
96051.16442438592
96051.09357922187
96050.98997147952
96050.84555192101
96050.64997871392
96050.38525076884
96050.03442322067
96051.63165128708
96051.62800523394
96051.62084755018
96051.60865671889
96051.59080163008
96051.56617588789
96051.5352445371
96051.49996909068
96051.45962819834
96051.41710900397
96051.3745312055
96051.33501296787
96051.29745974269
96051.26674777937
96051.2440253313
96051.20992170931
96051.15692805394
96051.08157678117
96050.9766451444
96050.8330380003
96050.63884767258
96050.37490947246
96050.02493988562
96051.62613288601
96051.62230560333
96051.61521274527
96051.60325253986
96051.58602183331
96051.56270821589
96051.53375284644
96051.50120971201
96051.46454875104
96051.42415685602
96051.38215582845
96051.34498993115
96051.3128063655
96051.28449510365
96051.25407352234
96051.21445279229
96051.15873820991
96051.08227327431
96050.97856086517
96050.83952115354
96050.65280726035
96050.39925501923
96050.06553925066
96051.62437301128
96051.62052847235
96051.61368535519
96051.60227910102
96051.5860524965
96051.56432383436
96051.53743751012
96051.50766007582
96051.47381953416
96051.43667219473
96051.39892751865
96051.36472822528
96051.33316759497
96051.30242966145
96051.26839449037
96051.22556435414
96051.16918571826
96051.09456778258
96050.99576215974
96050.86504973736
96050.69067818312
96050.45673833226
96050.15226451741
96051.6259299821
96051.62215596442
96051.61565915187
96051.60494564344
96051.58987440867
96051.56985827968
96051.54516395365
96051.51686931169
96051.48631954375
96051.45237742328
96051.41927491321
96051.38697279656
96051.35562565297
96051.32368022764
96051.28790553006
96051.24440607578
96051.1893538195
96051.11856937611
96051.02687598529
96050.90743673523
96050.7498559535
96050.54239119578
96050.280768326
96051.63026450561
96051.62659894534
96051.6204761047
96051.61050183982
96051.59664649106
96051.5784229531
96051.55602788345
96051.53012041998
96051.50172078784
96051.47189452365
96051.44152784413
96051.41120021645
96051.3807834303
96051.34898450867
96051.31342217402
96051.2712184382
96051.21930217287
96051.15414384431
96051.07147155711
96050.9655436903
96050.82778733478
96050.65088229456
96050.43791914097
96051.63683665154
96051.63330430644
96051.62756635525
96051.61834857262
96051.60572693853
96051.58931908487
96051.56925959252
96051.54604720758
96051.5205118547
96051.49355350902
96051.46587107812
96051.43778383247
96051.40903862665
96051.3786317394
96051.34484689125
96051.30553426508
96051.25824749307
96051.20015309282
96051.12789177604
96051.03685622403
96050.92042338174
96050.77519890257
96050.60961693505
96051.64520221183
96051.64183700451
96051.63650611138
96051.62806288771
96051.61666952344
96051.60204905317
96051.58431074483
96051.56381389372
96051.54118057118
96051.5171233
96051.49221537971
96051.46669454536
96051.44032934091
96051.41236721608
96051.38157540264
96051.34635742544
96051.30481979494
96051.25479644882
96051.19377219825
96051.11821534847
96051.02333323428
96050.90873934663
96050.78563877422
96051.65504451132
96051.65188828
96051.64700085176
96051.63936007931
96051.62918595711
96051.61629354283
96051.60079425733
96051.58296227957
96051.56325457804
96051.54220614149
96051.52027667225
96051.49768573506
96051.4742945036
96051.44957550048
96051.42265407331
96051.39236787513
96051.3573160684
96051.31593465837
96051.26644344331
96051.20626693814
96051.13216881736
96051.04579427245
96050.95918068245
96051.66613724742
96051.66322858763
96051.65882497016
96051.65202055033
96051.64306756083
96051.63185220699
96051.61849490005
96051.6032259622
96051.58640078515
96051.56842835953
96051.54967114044
96051.53033146558
96051.51036144041
96051.48943044017
96051.46694747978
96051.44210290854
96051.41392373365
96051.38136332788
96051.34325424921
96051.29782766037
96051.24308039178
96051.18187328422
96051.12594036362
96051.67828010397
96051.67564756077
96051.67176201641
96051.66582357528
96051.65809920416
96051.64852954722
96051.63724218309
96051.62444136273
96051.61042047129
96051.59551091204
96051.58001257048
96051.56411648331
96051.54784319845
96051.53101712505
96051.51327689961
96051.49410613277
96051.47289059017
96051.44900803735
96051.42178372751
96051.39009870976
96051.35287365851
96051.31358510055
96051.28308949637
96051.69126264128
96051.68892460145
96051.68558011514
96051.68052414134
96051.6740259136
96051.66606793427
96051.65678339863
96051.64636057998
96051.63505296901
96051.62314302028
96051.61089370196
96051.59849540141
96051.58602448378
96051.57342615764
96051.56052166941
96051.54703293303
96051.53263600286
96051.51704337275
96051.49996257001
96051.48077729932
96051.45906933285
96051.43852824574
96051.42889696579
96051.70486713579
96051.70283247487
96051.70003847043
96051.69586459616
96051.6905734762
96051.6841793792
96051.6768193343
96051.66867178328
96051.65996456938
96051.65094939202
96051.64186840583
96051.63291823077
96051.62422267595
96051.61582244426
96051.6076818991
96051.59971028607
96051.5918098094
96051.58394767781
96051.57611738949
96051.56807678005
96051.55986058904
96051.55511711809
96051.56242191979
96051.71887373154
96051.71714171227
96051.71489353562
96051.71158350006
96051.70746176924
96051.70256638218
96051.69703644457
96051.69104432243
96051.68480163536
96051.67854126515
96051.67249459353
96051.66686764453
96051.66182381753
96051.65747859525
96051.65390639714
96051.65115928916
96051.64930945954
96051.64851078686
96051.6489622011
96051.65068929117
96051.65402238848
96051.66241947388
96051.68333389801
96051.73305441279
96051.73161709774
96051.729898516
96051.72741924385
96051.7244135174
96051.72093701338
96051.7171293491
96051.71315870019
96051.70922623272
96051.70555356317
96051.70236737523
96051.69988387221
96051.69829838151
96051.69778359603
96051.69849646121
96051.70059458043
96051.7042731871
96051.70981696296
96051.71756505621
96051.72772633088
96051.74081122711
96051.76000823088
96051.79174027353
96051.74718422594
96051.74602812898
96051.74481371217
96051.74312035069
96051.74116461123
96051.73901508666
96051.73681072654
96051.73471648496
96051.73292649751
96051.7316554671
96051.73112842492
96051.73157082727
96051.73320271791
96051.73623923205
96051.74089722468
96051.7474094167
96051.75605616454
96051.76720859666
96051.78129520372
96051.79864327706
96051.81986107319
96051.84783443148
96051.88806934253
96051.76104416858
96051.76015188651
96051.75940946603
96051.75844857033
96051.75746758543
96051.75654441086
96051.75581646431
96051.75544588227
96051.75562171347
96051.75655408869
96051.75846750937
96051.76159470428
96051.76617372237
96051.77244977014
96051.7806813624
96051.79115229583
96051.80419854216
96051.82024370693
96051.83976698889
96051.86316544696
96051.89108799615
96051.92611344329
96051.97294761683
96051.77442592998
96051.77377749237
96051.77347033381
96051.77318276421
96051.77309530581
96051.77329240178
96051.77390933063
96051.775105487
96051.77706580979
96051.77999689714
96051.78412269313
96051.78968082176
96051.7969214935
96051.80610999484
96051.81753216381
96051.83150423908
96051.84839523338
96051.86865582759
96051.8927877836
96051.92122286036
96051.95461259002
96051.99524216783
96052.04713075439
96051.78713497237
96051.786708898
96051.78679747459
96051.78712076582
96051.78784227764
96051.78905088952
96051.7908793385
96051.79348418859
96051.79704667188
96051.80177013911
96051.80787736311
96051.81560848396
96051.82522098901
96051.83699239482
96051.85122489234
96051.8682531197
96051.88846242278
96051.91231223418
96051.94030698235
96051.97288872603
96052.01068804
96052.05572063425
96052.11142372683
96051.79899269836
96051.79876680383
96051.79921017741
96051.80008038554
96051.80152506707
96051.8036359235
96051.80654291289
96051.81039963898
96051.81538375987
96051.8216953402
96051.82955522044
96051.83920397163
96051.85090244653
96051.86493433685
96051.88160990771
96051.90127189326
96051.9243102316
96051.95118078533
96051.98237755624
96052.01833669003
96052.05965432225
96052.10810557831
96052.16663864363
96051.80983771023
96051.80978972443
96051.81054661557
96051.81189974297
96051.81398217355
96051.81688719391
96051.82074187341
96051.82569675789
96051.83192598389
96051.83962622052
96051.84901571134
96051.86033382008
96051.87384180685
96051.88982506774
96051.90859598748
96051.93049824718
96051.95591859244
96051.9853015859
96052.01912285664
96052.05780258802
96052.10189631225
96052.15296964085
96052.21356446856
96051.81952617186
96051.81963424505
96051.82066389058
96051.82243699403
96051.82507338494
96051.82866698156
96051.83334196384
96051.83924580268
96051.84654918531
96051.85544531517
96051.8661493573
96051.87889830224
96051.89395176622
96051.91159383459
96051.93213509856
96051.95591557601
96051.98331394575
96052.01475908954
96052.05070445896
96052.09154946718
96052.13780801701
96052.19086656977
96052.25293245437
96051.82793159917
96051.82817471854
96051.82943752325
96051.83156950443
96051.83467855702
96051.83885848598
96051.84423067374
96051.85093960492
96051.85915266324
96051.86905963498
96051.88087238403
96051.89482486132
96051.91117380752
96051.9302001719
96051.95221041271
96051.97753826893
96052.0065519706
96052.03966321722
96052.07730242789
96052.11984663173
96052.1677704107
96052.22231068379
96052.28540283807
96051.83494568385
96051.83530382797
96051.8367615254
96051.83919331829
96051.84269647853
96051.84736412867
96051.8533150186
96051.86069081473
96051.86965580849
96051.88039654895
96051.89312163608
96051.90806176772
96051.92547028921
96051.94562420595
96051.96882485511
96051.99539877014
96052.02570328872
96052.06013338435
96052.09909756124
96052.14295121845
96052.19213435797
96052.24776259252
96052.31155400079
96051.84048229115
96051.84093626766
96051.8425515542
96051.8452255756
96051.84904643627
96051.85410621593
96051.86052127172
96051.86843068243
96051.87799595096
96051.88940071347
96051.90285058296
96051.91857317642
96051.93681850555
96051.95785963052
96051.98199279059
96052.00953755868
96052.04084123803
96052.07628397945
96052.1162550789
96052.16109084411
96052.21120308658
96052.26761295988
96052.33186880204
96051.84447784926
96051.84500998432
96051.84674773899
96051.84960853429
96051.85367274765
96051.85903134341
96051.86579874689
96051.87411194228
96051.88413017648
96051.89603471401
96051.91002871685
96051.92633724715
96051.94520752443
96051.96690927914
96051.99173443332
96052.01999672869
96052.05203530673
96052.08821854857
96052.12892040801
96052.17446168867
96052.22523307148
96052.28218676745
96052.34674568137
96051.84686269812
96051.84745764233
96051.84928765478
96051.85228412953
96051.85652098981
96051.86208848112
96051.86909988509
96051.87769089059
96051.88801929106
96051.90026478733
96051.91462887426
96051.9313348088
96051.95062777483
96051.97277504744
96051.99806540518
96052.0268084741
96052.05933783087
96052.09601388338
96052.13719986759
96052.18320563246
96052.23440867846
96052.29171706569
96052.356470161
96051.8475237534
96051.84816163917
96051.8500449726
96051.85311576801
96051.85744598422
96051.86312642257
96051.87026981954
96051.87901094377
96051.88950655835
96051.90193536041
96051.91649790409
96051.93341654653
96051.95293554802
96051.97532110571
96052.00086059791
96052.02986175948
96052.06265554874
96052.09959856354
96052.14104874019
96052.18731078829
96052.2387568448
96052.29627234278
96052.36114458117
95876.57644861127
95920.80959359161
96196.5459470029
96390.71648479305
96842.81774884988
96788.45486751841
96788.527828408
96789.42872500958
96967.30837295536
96885.83487225155
96844.43812756034
96832.13056339016
97029.23851625794
96992.09378707872
96974.90210502666
96968.89551373215
96821.35150967176
96911.59082400889
97030.90753174518
97109.75032187064
96097.97623193236
96126.60091864371
96169.58595531956
96227.13149304294
96050.37138886222
96050.15603866908
96050.02057604422
96049.9249508471
96050.35621848138
96050.0983797158
96049.88369993416
96049.69043382432
96050.27266583162
96050.04218531567
96049.84026964725
96049.64507844424
96050.19430816763
96049.97137885628
96049.76495364189
96049.55501702764
96050.08386729681
96049.85516481924
96049.63424179443
96049.40090480835
96049.95662205423
96049.71673480597
96049.47550009382
96049.21429425957
96049.83598038023
96049.5847112004
96049.32138027422
96049.0331585032
96049.73877587181
96049.47835367966
96049.1960335855
96048.88838093949
96049.6810978994
96049.41600082644
96049.12363412586
96048.80738717913
96049.67585713298
96049.41382338516
96049.12419785863
96048.81054723274
96049.73072253419
96049.48237437924
96049.20780158039
96048.90692310517
96049.84893120585
96049.62562269811
96049.37707182778
96049.09766624596
96050.02491615698
96049.83698755816
96049.62600239291
96049.37863275546
96050.23533444677
96050.08742201865
96049.91970541474
96049.71280977828
96050.45692174161
96050.34632634121
96050.21990953341
96050.05672503357
96050.67559718243
96050.5962768045
96050.50486790526
96050.38210989239
96050.88413773295
96050.8300475725
96050.76716520361
96050.67932677882
96051.07920956003
96051.04528256904
96051.00526244465
96050.94611939408
96051.25906590649
96051.24116976788
96051.2192812556
96051.18303966369
96051.42297234692
96051.4177708932
96051.41017016009
96051.39195545655
96051.57080690892
96051.57557716074
96051.5791205673
96051.57492029398
96051.70293835638
96051.71547934663
96051.72763920864
96051.73422903205
96051.8200453747
96051.83857377719
96051.85732021488
96051.87213732362
96051.92304310417
96051.946128179
96051.96984172797
96051.99085057493
96052.01295738971
96052.0394574466
96052.06685903926
96052.09246902505
96052.09088625148
96052.11990639467
96052.1500030896
96052.17898316939
96052.1579119363
96052.18875304182
96052.22077401042
96052.2521741041
96052.21507217232
96052.24719445725
96052.28055088954
96052.31365057685
96052.26334652687
96052.29634387478
96052.33059603926
96052.3648557103
96052.3036176716
96052.33718970552
96052.37201621274
96052.40704033052
96052.3366692526
96052.37060209946
96052.4057775179
96052.44128488013
96052.36317734962
96052.39732277249
96052.43269167883
96052.46848591542
96052.38369801604
96052.41795914156
96052.45342373107
96052.4893793924
96052.39869308709
96052.43301580234
96052.46852340108
96052.50456368351
96052.40849186947
96052.44284597972
96052.47836780299
96052.51444333945
96052.41321627855
96052.44760496935
96052.4831514853
96052.51925660911
96553.7920533634
96309.58456578481
96073.65241144218
96078.90703042239
96076.19721650278
96076.41735567908
96076.39098528918
96076.48038703381
96076.57745277465
96076.53661072029
96076.40337008725
96076.2380781606
96076.06832610862
96075.90867910389
96075.76613501942
96075.64601240927
96075.55306950939
96075.49086374952
96075.46206368862
96762.39356947219
96705.66142246615
96646.84453046546
96545.94707566526
96180.32247295353
96084.12286363372
96076.60118515325
96076.67821497282
96076.8678664114
96076.73822771586
96076.50903969197
96076.28576816173
96076.07672258845
96075.8869902445
96075.71814914515
96075.57550081615
96075.46502254975
96075.39107235256
96075.3570179884
96828.98454481276
96819.37580998678
96817.64418260887
96826.20584385954
96832.58731577831
96701.24930471227
96210.51898526071
96079.94182223371
96077.6006461754
96077.03413799652
96076.60472402732
96076.30772339218
96076.06096008584
96075.84082410471
96075.64039563778
96075.46947338645
96075.33665130966
96075.24775104264
96075.20721351399
96965.90711348211
96964.45378173779
96959.95166778158
96963.5350933906
96971.47088745357
96969.58614759232
96970.84652894597
96674.72625200034
96136.90166074761
96077.35312599879
96076.63074411701
96076.25538862501
96076.00338271318
96075.76085688329
96075.52360612601
96075.31790003821
96075.15810747242
96075.05129488408
96075.00316062657
97105.87255089122
97101.21452969887
97088.86209375839
97084.03415439125
97082.28415243696
97082.06989702639
97091.7040744796
97097.804090459
96946.08816474458
96201.20274525249
96076.64760377852
96076.28872336698
96075.94159221314
96075.64262558795
96075.35483186682
96075.10628620799
96074.91449907888
96074.78737241126
96074.7309773126
96311.67521038321
96428.67365904896
96733.08470236344
97169.66622741803
97223.03846301243
97202.06347087276
97201.28813344799
97207.89895697939
97229.2219971912
97006.24259703177
96163.75818545223
96076.15472662068
96076.02531207079
96075.51719394104
96075.11823739742
96074.8142501948
96074.58644251352
96074.43743562176
96074.37286569487
96049.81320591859
96050.223393044
96062.90748892832
96079.90948252591
96172.04059524376
96855.2850009535
97328.13044489172
97316.70647905764
97329.90915703894
97349.55758285728
96812.67319048129
96088.29985917735
96076.1593297974
96075.39062130454
96074.77982573486
96074.40812325056
96074.14713756171
96073.9795945825
96073.90888513411
96049.42392105043
96049.06386853172
96048.5396533077
96048.30291081463
96048.4741366558
96048.19576650181
96200.49732348863
97134.88324275259
97438.4747358576
97452.82500914988
97410.16646003444
96449.36110841567
96076.35154650673
96075.05133841491
96074.25001646091
96073.83812147645
96073.56483581399
96073.39102834732
96073.31969052208
96049.37019778986
96048.97987967459
96048.51424336503
96048.1558156704
96048.04364604008