/*--------------------------------*- C++ -*----------------------------------*\
| =========                 |                                                 |
| \\      /  F ield         | OpenFOAM: The Open Source CFD Toolbox           |
|  \\    /   O peration     | Version:  2206                                  |
|   \\  /    A nd           | Website:  www.openfoam.com                      |
|    \\/     M anipulation  |                                                 |
\*---------------------------------------------------------------------------*/
FoamFile
{
    version     2.0;
    format      ascii;
    arch        "LSB;label=32;scalar=64";
    class       surfaceScalarField;
    location    "0.3";
    object      phi;
}
// * * * * * * * * * * * * * * * * * * * * * * * * * * * * * * * * * * * * * //

dimensions      [0 3 -1 0 0 0 0];

oriented        oriented;

internalField   nonuniform List<scalar> 
4432
(
4.253196591819658e-06
-4.253196629058033e-06
8.552333840922932e-06
-4.299137288071965e-06
1.280385184172737e-05
-4.251518039388323e-06
1.704755109243965e-05
-4.243699288666161e-06
2.127243306258018e-05
-4.224882007801917e-06
2.545038573077925e-05
-4.177952705718733e-06
2.955599640316829e-05
-4.105610709503792e-06
3.356061417754724e-05
-4.004617810344639e-06
3.7426569878566e-05
-3.865955734701249e-06
4.110436658626265e-05
-3.677796737722459e-06
4.452986959832488e-05
-3.425503037007213e-06
4.762047961951099e-05
-3.09061003910085e-06
5.026999142217374e-05
-2.649511809112796e-06
5.234159174049658e-05
-2.071600302972475e-06
5.365884339943163e-05
-1.317251601609559e-06
5.400059587710514e-05
-3.417523450810749e-07
5.308346455222942e-05
9.171316011010151e-07
5.054748600864023e-05
2.535979116888289e-06
4.595535370150979e-05
4.592133519319864e-06
3.882062022447449e-05
7.134736173544021e-06
2.877546007427564e-05
1.004516684734842e-05
1.548418682437138e-05
1.329129328771721e-05
1.548419928150363e-05
4.309205591896845e-06
-8.562402268567961e-06
8.623057401031801e-06
-8.612989146165895e-06
1.2921309710787e-05
-8.549770397774402e-06
1.720870396103305e-05
-8.531093586702326e-06
2.147059245015223e-05
-8.486770544020289e-06
2.568598626589141e-05
-8.393346567791345e-06
2.98315238957944e-05
-8.25114838441083e-06
3.387875103860937e-05
-8.051844995798774e-06
3.779067715352582e-05
-7.777881888530975e-06
4.151900936544914e-05
-7.406128983411582e-06
4.500124052734771e-05
-6.907734226284027e-06
4.815704040766101e-05
-6.246409938161225e-06
5.088350002111315e-05
-5.375971425830349e-06
5.304864379025532e-05
-4.236744043439278e-06
5.448283761907901e-05
-2.751445340991066e-06
5.495925144652923e-05
-8.181659792646709e-07
5.419198222679319e-05
1.684401201451913e-06
5.181233701292068e-05
4.915625052626477e-06
4.735938803052249e-05
9.045083883542667e-06
4.029212497379736e-05
1.420200207197073e-05
3.00671776381064e-05
2.027012098767183e-05
1.631042175176311e-05
2.704806972832647e-05
3.179462246579814e-05
4.303709420033282e-06
-1.286611171886772e-05
8.609488322148307e-06
-1.29187680785662e-05
1.291823158048493e-05
-1.285851368429522e-05
1.721506157388418e-05
-1.282792360502153e-05
2.148363500143956e-05
-1.275534399277139e-05
2.570731790983352e-05
-1.261702949289733e-05
2.986487218272167e-05
-1.24087026682425e-05
3.392870736953796e-05
-1.21156801861853e-05
3.786290591999338e-05
-1.171208043371757e-05
4.162064656570538e-05
-1.116386961433312e-05
4.514124724217195e-05
-1.042833487925654e-05
4.834672414447716e-05
-9.451886808096225e-06
5.113722615870797e-05
-8.166473391175422e-06
5.338442390217682e-05
-6.483941700439798e-06
5.492235158314048e-05
-4.289372862746913e-06
5.553814785487409e-05
-1.433961963107639e-06
5.495283743911257e-05
2.269712145830914e-06
5.280901192925946e-05
7.059451471270839e-06
4.864372573602798e-05
1.321037162496634e-05
4.185609904487689e-05
2.09896316769018e-05
3.172900563059172e-05
3.039722121618024e-05
1.760122814187626e-05
4.117586860909214e-05
4.939587290561579e-05
4.304655376778031e-06
-1.717076702140773e-05
8.609894590030345e-06
-1.722400721252665e-05
1.292908684252918e-05
-1.717770584833064e-05
1.723651875918851e-05
-1.713535542117588e-05
2.151585997158261e-05
-1.703468509034012e-05
2.575346632463031e-05
-1.685463571402354e-05
2.993020561462987e-05
-1.658544180589151e-05
3.402003364717296e-05
-1.620550804279846e-05
3.79887583281349e-05
-1.568080491355704e-05
4.179168860608524e-05
-1.496679966787772e-05
4.537076151451928e-05
-1.40074075477642e-05
4.86513892150711e-05
-1.273251426162974e-05
5.153817956634437e-05
-1.105326348793661e-05
5.390830353125261e-05
-8.85406539150998e-06
5.560252495767437e-05
-5.983593976568099e-06
5.641535833333481e-05
-2.246794921046794e-06
5.607306759740482e-05
2.612003617440883e-06
5.423580332235528e-05
8.896716948419855e-06
5.044038521013646e-05
1.700579157906567e-05
4.403903423063093e-05
2.739098576132457e-05
3.412173341909203e-05
4.031452898190931e-05
1.955851171795696e-05
5.573911313971524e-05
6.895454189694075e-05
4.308309266910277e-06
-2.147907590289415e-05
8.618412209631533e-06
-2.15341097510412e-05
1.295005183881498e-05
-2.15093450452555e-05
1.727076933812944e-05
-2.145607245363732e-05
2.156573380384117e-05
-2.132964904796885e-05
2.582372698723213e-05
-2.11126283402387e-05
3.002774496441576e-05
-2.078945916817634e-05
3.415384352345287e-05
-2.033160592176889e-05
3.817019111725792e-05
-1.969715175948996e-05
4.203490490313734e-05
-1.883151264549418e-05
4.569335328955291e-05
-1.766585508918592e-05
4.907543674568332e-05
-1.611459686495468e-05
5.209166823948272e-05
-1.406949414521543e-05
5.462632847625987e-05
-1.13887248455857e-05
5.652790534428008e-05
-7.885170183734097e-06
5.759853965893405e-05
-3.317428664529139e-06
5.757684537956448e-05
2.633698905806003e-06
5.614557052643486e-05
1.032799353495527e-05
5.284833660971431e-05
2.030302800265073e-05
4.699725833356006e-05
3.32420677696446e-05
3.746313189709492e-05
4.984866296459085e-05
2.245166967251097e-05
7.075060062427831e-05
9.140642760610921e-05
4.315294467402471e-06
-2.579436928356813e-05
8.635208389098129e-06
-2.585402253856992e-05
1.29816346480239e-05
-2.58557701037814e-05
1.731899960042116e-05
-2.579343612568524e-05
2.163467513902968e-05
-2.564532321079455e-05
2.591970872899261e-05
-2.539766044021519e-05
3.015938768124287e-05
-2.502913649577447e-05
3.433235353575573e-05
-2.450456999942758e-05
3.84097415603956e-05
-2.377453784857801e-05
4.23531513151797e-05
-2.277492032226333e-05
4.611216654404092e-05
-2.14248681496839e-05
4.96222157324393e-05
-1.962464385839487e-05
5.280113400483463e-05
-1.724841026705826e-05
5.554217037034561e-05
-1.412975926836161e-05
5.770430910995742e-05
-1.004730751047913e-05
5.910261822972013e-05
-4.715737125753626e-06
5.948162937042355e-05
2.25468897519822e-06
5.855797263221601e-05
1.125165292942239e-05
5.590153663401867e-05
2.295946801786658e-05
5.082482993052192e-05
3.831877996580031e-05
4.199766635154133e-05
5.867583587767903e-05
2.677409422313865e-05
8.597420233980484e-05
0.0001181807555434487
4.33038859243303e-06
-3.012475548825011e-05
8.664230377798952e-06
-3.018786184054514e-05
1.302734848660167e-05
-3.02188856009925e-05
1.738438017185356e-05
-3.015046504463579e-05
2.172513814035561e-05
-2.998607822703013e-05
2.60431437679907e-05
-2.971566289048901e-05
3.032628996596622e-05
-2.931227924797691e-05
3.455627041248774e-05
-2.873454669406486e-05
3.870776173610087e-05
-2.792602509875605e-05
4.274646936723726e-05
-2.681362358721158e-05
4.662683951242365e-05
-2.530523373156999e-05
5.029046980223114e-05
-2.328826949825402e-05
5.366303335249973e-05
-2.062096920354664e-05
5.664700184219129e-05
-1.711372355908176e-05
5.91113724091121e-05
-1.251167516297069e-05
6.088031423716031e-05
-6.48467841631563e-06
6.175680207199172e-05
1.378201828282829e-06
6.144202338839406e-05
1.156643539122645e-05
5.959399451955898e-05
2.480750377619463e-05
5.559060622409817e-05
4.232217782726861e-05
4.802022892252522e-05
6.624622703955875e-05
3.340611302537509e-05
0.0001005883560126212
0.000151587121546802
4.361027811865965e-06
-3.448577572499356e-05
8.705959264802622e-06
-3.453278544616383e-05
1.30903598596977e-05
-3.460327799405466e-05
1.747036284011649e-05
-3.453045939084224e-05
2.184063209537221e-05
-3.43563383261033e-05
2.619794801142998e-05
-3.407296901713125e-05
3.053315933991119e-05
-3.36474800273542e-05
3.483156825047434e-05
-3.30329441794008e-05
3.907208498220021e-05
-3.216652946347919e-05
4.322525066222191e-05
-3.096677600291792e-05
4.725114710339272e-05
-2.933111622429635e-05
5.109818297118026e-05
-2.713529104118344e-05
5.47001289456461e-05
-2.422290081465198e-05
5.796884923907191e-05
-2.038243030147866e-05
6.078415735728623e-05
-1.532697278908675e-05
6.298302916325043e-05
-8.683546503797626e-06
6.439204250105625e-05
-3.081369867581044e-08
6.475284770353341e-05
1.120563119439735e-05
6.385523866902168e-05
2.570512003943002e-05
6.128032052274915e-05
4.489711249815429e-05
5.579470472860546e-05
7.173187273204087e-05
4.378193181016557e-05
0.0001126011961984021
0.0001953691340551522
-3.152791270226842e-06
3.20920337370552e-06
-2.808936640856495e-06
-2.876099984830183e-07
-7.594727353016095e-06
4.841893569220252e-06
-9.486578320524616e-06
1.94780242908944e-06
-8.499696164691127e-06
-9.309404680283706e-07
-4.197561368359489e-06
-4.246066410777601e-06
2.079916264272133e-06
-6.22113685286961e-06
9.009057915664675e-06
-6.872369829167295e-06
1.548966386291898e-05
-6.42325028791619e-06
2.072639410612417e-05
-5.178686905373096e-06
2.422019932577678e-05
-3.435042219255581e-06
2.58388142189608e-05
-1.559162309380958e-06
2.567606162438511e-05
2.228240295874662e-07
2.390164264950076e-05
1.835017951234154e-06
2.074884102322151e-05
3.21383109117637e-06
1.64915439367575e-05
4.318662244554776e-06
1.141278245773845e-05
5.140372562391107e-06
5.799157626618142e-06
5.675395008504146e-06
5.860997374048869e-06
-4.577525001032901e-06
7.84316090632274e-06
-3.529472315550979e-06
-1.279412420621608e-06
-9.285007693735612e-06
1.065351332291339e-05
-1.100116529573322e-05
3.719877133779336e-06
-9.732454571080178e-06
-2.143748949793813e-06
-4.887656290104885e-06
-9.034869674859566e-06
2.06149359011395e-06
-1.311403252806206e-05
9.537035192819096e-06
-1.429119607017206e-05
1.649665661672964e-05
-1.332554836988753e-05
2.20963758420865e-05
-1.07203776454926e-05
2.586395997000737e-05
-7.143865941719424e-06
2.764337692932337e-05
-3.279121335359796e-06
2.749872074486828e-05
4.275616562846128e-07
2.561390199798676e-05
3.78044793743074e-06
2.225135005677548e-05
6.637425293979392e-06
1.770535960618762e-05
8.926030160587793e-06
1.22738706010555e-05
1.063348383716982e-05
6.253205624400073e-06
1.175783953045393e-05
1.217605087878906e-05
-5.884821560023289e-06
1.378445682948211e-05
-3.39761918512976e-06
-3.710360873267871e-06
-1.055824293367e-05
1.787016934874494e-05
-1.209541925816765e-05
5.312872384612161e-06
-1.099135186933118e-05
-3.19205197287458e-06
-5.642757294703558e-06
-1.4327984669045e-05
1.811319775631031e-06
-2.051247962915106e-05
9.718059880378424e-06
-2.214152832526571e-05
1.698180399711005e-05
-2.053209015495821e-05
2.275195796289821e-05
-1.643254255584806e-05
2.659524490423338e-05
-1.092839782724794e-05
2.838538034126929e-05
-5.009787924921697e-06
2.82097562059078e-05
6.632860407758238e-07
2.626102546074407e-05
5.789811585635387e-06
2.281404610718583e-05
1.01454682988913e-05
1.815570648092284e-05
1.364576687602281e-05
1.258991047913581e-05
1.626091951404012e-05
6.419232804409692e-06
1.799031191853326e-05
1.86571456739656e-05
-7.641124267836822e-06
2.148204084091767e-05
-2.97124423435658e-06
-8.325091020192437e-06
-1.235363091450173e-05
2.730839513635113e-05
-1.357964523667047e-05
6.594317980403273e-06
-1.284577096472731e-05
-3.870776335381375e-06
-6.689132996864051e-06
-2.043257491521879e-05
1.490265553748328e-06
-2.864029233916471e-05
9.988964827532452e-06
-3.058575797537582e-05
1.768338599575264e-05
-2.816998244299523e-05
2.37002292320283e-05
-2.239156969273812e-05
2.763105755469907e-05
-1.480049631676142e-05
2.940200852593919e-05
-6.721253804731632e-06
2.913219669626125e-05
9.93227515023019e-07
2.705799713860209e-05
7.92467672678836e-06
2.346342573358926e-05
1.380113454108441e-05
1.86492031408973e-05
1.852141435764197e-05
1.29218175777114e-05
2.204996893738444e-05
6.586783605858174e-06
2.438716183895475e-05
2.53058113522556e-05
-1.010069944537584e-05
3.162937103948991e-05
-1.525347971192321e-06
-1.68857233769298e-05
-1.457683111013327e-05
4.041384808970629e-05
-1.532695475964196e-05
7.397840934540188e-06
-1.519188713289554e-05
-3.953261872300709e-06
-7.704187206798162e-06
-2.788521789995567e-05
1.311367605953995e-06
-3.762318366794777e-05
1.049817518867364e-05
-3.972796535025703e-05
1.871006040086367e-05
-3.63290352891901e-05
2.502731238528871e-05
-2.865199373331573e-05
2.905450875921821e-05
-1.876914296039452e-05
3.077436357849111e-05
-8.381620262028527e-06
3.036427603236787e-05
1.463483966530181e-06
2.810942360656433e-05
1.024023949032465e-05
2.431204908353049e-05
1.765964577847867e-05
1.92863974589466e-05
2.360852736043161e-05
1.334559985480401e-05
2.805246162885736e-05
6.798320730854684e-06
3.099628422099742e-05
3.216603998936642e-05
-1.230109725450209e-05
4.423108370266822e-05
1.065522247875694e-06
-3.075359068087219e-05
-1.726261630435471e-05
5.878045025277514e-05
-1.714084699360731e-05
7.320052583478549e-06
-1.727734254059705e-05
-3.771802322381175e-06
-7.816435200924154e-06
-3.737073592668021e-05
1.770037824038747e-06
-4.723775717145716e-05
1.14389484694682e-05
-4.938837661527582e-05
2.017448446306901e-05
-4.502754288034236e-05
2.68157843460915e-05
-3.524134193531423e-05
3.091707958861147e-05
-2.281295370896618e-05
3.253587067489588e-05
-9.941057738606758e-06
3.193307093863413e-05
2.126484364869978e-06
2.943671887127859e-05
1.279735688694897e-05
2.537863898505911e-05
2.177891524700325e-05
2.008489010389433e-05
2.896378339441624e-05
1.387514427850915e-05
3.432394155632866e-05
7.062395144553387e-06
3.787091074447892e-05
3.929037453005013e-05
-3.214817391225511e-06
4.284710745761013e-05
1.407196376398992e-05
-4.967697330751305e-05
-1.894134790227017e-05
8.881486714409945e-05
-1.806486564671266e-05
6.450050795937986e-06
-1.665718395349739e-05
-5.152096064153112e-06
-5.137702686164993e-06
-4.906526561376816e-05
3.9558261411347e-06
-5.648498382945182e-05
1.327811167217806e-05
-5.879195286264967e-05
2.231405750364369e-05
-5.407618801860633e-05
2.919635262675903e-05
-4.209045314465515e-05
3.329712029224036e-05
-2.686117087339759e-05
3.472568167575743e-05
-1.131114808606691e-05
3.385337512525337e-05
3.058915060343984e-06
3.104891457744093e-05
1.566263423728334e-05
2.666884843688762e-05
2.622023485627817e-05
2.10483973457377e-05
3.46457974340559e-05
1.451294603961646e-05
4.092117364150562e-05
7.381031744949041e-06
4.506474262052865e-05
4.673338399667294e-05
3.954347763389017e-05
-1.01084342878522e-06
4.133782726929903e-05
-4.767520392000518e-05
-1.07732712701519e-05
0.0001269268539981285
-1.4122291890802e-05
9.511879882933004e-06
-7.752953448639494e-06
-1.174879664663724e-05
3.150153954184365e-06
-6.079151904463873e-05
9.718676396111732e-06
-6.364833967029424e-05
1.703787288973705e-05
-6.653512542618289e-05
2.565405998009827e-05
-6.29196568715978e-05
3.24898650982769e-05
-4.897939071874365e-05
3.639290504555984e-05
-3.073519674957405e-05
3.745498120723791e-05
-1.231915436157052e-05
3.616970144741792e-05
4.403690676245999e-06
3.296428801600555e-05
1.892884001936177e-05
2.819080498908161e-05
3.10550376898696e-05
2.218041626756279e-05
4.071781311478186e-05
1.525957058006911e-05
4.790385105751048e-05
7.753398289372408e-06
5.263287444097447e-05
5.454879928880594e-05
9.27003097215519e-06
-4.375578469069282e-05
1.864683092949801e-05
-4.3909562640765e-05
2.799673532136596e-05
-4.395315866006182e-05
3.736403433184646e-05
-4.389773347942361e-05
4.673860514807727e-05
-4.373088275385416e-05
5.611007430577383e-05
-4.344440996864985e-05
6.546742417637705e-05
-4.300479948358295e-05
7.478992314394405e-05
-4.235541018016998e-05
8.40438711998073e-05
-4.142044183914885e-05
9.317896270259212e-05
-4.010182931483911e-05
0.0001021243779605929
-3.827649147573884e-05
0.0001107878154540217
-3.579868759509085e-05
0.0001190507181346658
-3.248576168495516e-05
0.00012675892320469
-2.809059338517385e-05
0.0001337231786613563
-2.229119346063422e-05
0.0001397497225877239
-1.471007359970857e-05
0.0001446962969553251
-4.977391702508394e-06
0.0001485065958466827
7.395342142442204e-06
0.0001517162484231261
2.249550923634438e-05
0.0001552036936287633
4.140974089668853e-05
0.0001618763793257987
6.505929473959397e-05
0.0001821722945492646
9.230549847596387e-05
0.0001167778333933246
0.0002607636756397183
9.331490297849757e-06
-5.308723281565533e-05
1.875328944123877e-05
-5.333131848202164e-05
2.819820726533223e-05
-5.339803160760968e-05
3.767165253582529e-05
-5.337113191197521e-05
4.718745680495434e-05
-5.324663769551201e-05
5.67548253022013e-05
-5.301172593989825e-05
6.637930036226563e-05
-5.262921805872152e-05
7.605921370574917e-05
-5.203526250676595e-05
8.57823586576945e-05
-5.11435211553199e-05
9.551922422262479e-05
-4.983862551515091e-05
0.0001052173606538045
-4.797455682047456e-05
0.0001148017913796556
-4.538304790734234e-05
0.0001241691616129636
-4.185305902508031e-05
0.0001331809335111252
-3.710228042001289e-05
0.0001416541910443423
-3.076437285449775e-05
0.0001494114160718193
-2.246725401327131e-05
0.000156438045488204
-1.200404069922156e-05
0.0001625829347400846
1.250405986341133e-06
0.0001692267324010008
1.585171182249308e-05
0.000177707674943977
3.292884988239092e-05
0.0001914596869176776
5.130738440535458e-05
0.0002133523237004042
7.041305058572799e-05
8.988548552868616e-05
0.0002402448896245536
9.442903807519157e-06
-6.253007147651794e-05
1.893549585089894e-05
-6.28238440451674e-05
2.84658532023526e-05
-6.29283204359589e-05
3.805088442776992e-05
-6.295609196857982e-05
4.771916080251863e-05
-6.291483939099131e-05
5.749824636857119e-05
-6.279073204748954e-05
6.741311161958922e-05
-6.254399771845741e-05
7.748173290722185e-05
-6.210379123489997e-05
8.771182020319079e-05
-6.137351016491019e-05
9.808660269977436e-05
-6.021330818392746e-05
0.0001085560527847999
-5.844391108137374e-05
0.0001190399371985062
-5.58668454844602e-05
0.0001294149088252738
-5.222793688209869e-05
0.0001395574740122289
-4.724469510385087e-05
0.0001492304047568738
-4.043715291509768e-05
0.0001580430729298751
-3.127982977521283e-05
0.0001657261042239418
-1.968709167410217e-05
0.0001736410004162276
-6.664601937778048e-06
0.0001815656028067234
7.927036196525161e-06
0.0001903848508280453
2.410962992313891e-05
0.0002022760561182205
3.941626465058081e-05
0.0002188172434230149
5.387200562622041e-05
6.543183117323407e-05
0.0002432711589505486
9.550049127953225e-06
-7.208003874451637e-05
1.910604163073484e-05
-7.23797531924334e-05
2.870898598990819e-05
-7.253117986074373e-05
3.839170132134559e-05
-7.263871975942614e-05
4.819543632698244e-05
-7.271848280891923e-05
5.816147450306659e-05
-7.275667162555506e-05
6.833083809898301e-05
-7.271325049687143e-05
7.87235929757571e-05
-7.249642455013704e-05
8.935297199572942e-05
-7.200277022113957e-05
0.0001002044231116346
-7.106465643921087e-05
0.0001112307690456133
-6.947017342419978e-05
0.0001223422871621694
-6.697829481343431e-05
0.0001332444445403781
-6.313000338046316e-05
0.0001438955425774571
-5.789623662535049e-05
0.000154334238202252
-5.087066337015463e-05
0.0001642500282272875
-4.117561762704299e-05
0.00017307109845792
-2.847503447613537e-05
0.0001803229621584527
-1.387244429145799e-05
0.0001882326380775539
6.171335229983603e-08
0.0001955470034142329
1.682079557504657e-05
0.0002047766605485626
3.018670777683471e-05
0.0002179694036544453
4.067929420569259e-05
4.710901682625088e-05
0.0002362923455213915
9.620595003122696e-06
-8.170055873981091e-05
1.918585012133554e-05
-8.194493108955204e-05
2.879787250591448e-05
-8.214312535717599e-05
3.849890312892874e-05
-8.233967089768171e-05
4.833588866317752e-05
-8.255537999868233e-05
5.83542762429367e-05
-8.277494632707966e-05
6.860015640484092e-05
-8.295895802710968e-05
7.899671780271324e-05
-8.289332022830232e-05
8.957572760386719e-05
-8.258193349806035e-05
0.0001003815823940072
-8.185454463104623e-05
0.0001114795069015277
-8.051440578962674e-05
0.0001228038661108013
-7.81941689359508e-05
0.0001332646996434868
-7.343197665810909e-05
0.0001434439913447982
-6.80236998182298e-05
0.0001538263079562376
-6.126775208316424e-05
0.0001634693047225991
-5.139966819543229e-05
0.0001727907966939323
-3.897164631789293e-05
0.0001818034565828669
-2.358926971902041e-05
0.0001894526867220857
-7.555754275140629e-06
0.0001956285540075121
1.147724712179587e-05
0.0002027208330869318
2.429062983678705e-05
0.0002129204405366865
3.109845353709917e-05
3.59977056378889e-05
0.0002242478344321721
9.613517636200657e-06
-9.127978347384791e-05
1.901037807427119e-05
-9.130391157570502e-05
2.846537438551902e-05
-9.154969389853603e-05
3.800795623855008e-05
-9.181520079860097e-05
4.769757968346041e-05
-9.214967321324684e-05
5.75904201483741e-05
-9.253440467911565e-05
6.757627947048299e-05
-9.276913743027954e-05
7.768459775221997e-05
-9.305201405117834e-05
8.81976352017361e-05
-9.381888776162448e-05
9.938087005929384e-05
-9.443705866623436e-05
0.0001119192927468317
-9.503494288016666e-05
0.0001252348111041924
-9.381888050573697e-05
0.0001287446689409631
-7.795605578521035e-05
0.0001261484762479291
-6.408476824263797e-05
0.0001041294478804582
-3.750275055798314e-05
9.0460444489133e-05
-3.679851935925963e-05
0.0001267174555002585
-7.472348972972899e-05
0.0001830262815023014
-7.931360245266721e-05
0.000237532449303518
-6.171861701197163e-05
0.0002674418744178973
-1.795852473818075e-05
0.0002597037867809866
2.872442510476599e-05
0.0002324909400670825
5.536489172112957e-05
4.224418487797926e-05
0.0002259466876104314
9.696787155198975e-06
-0.0001028558272688066
1.880750615232672e-05
-0.0001023790173081364
2.825900031804538e-05
-0.0001032450315713862
3.7918706731048e-05
-0.0001040004570380831
4.808190327819928e-05
-0.0001052524504868589
5.935880153152331e-05
-0.0001072329475015938
6.77680380647989e-05
-0.0001047297229038521
7.892461549924733e-05
-0.000103691379387793
9.23012285165166e-05
-0.0001042230679188508
0.0001048500698591856
-0.0001046064143850884
0.0001130882678516113
-0.0001017925192987092
0.0001121645411800669
-9.287535237882507e-05
0.0001062219623788079
-7.148351022817345e-05
9.214957325838877e-05
-4.900456962450732e-05
9.353228813622068e-05
-3.893071848299921e-05
0.000116867490171093
-6.021464326713021e-05
0.0001402650749312856
-9.750346472827795e-05
0.0001653585163736401
-0.0001036375159229964
0.000193772923397642
-8.935200832124829e-05
0.0002340691636423276
-5.888639021493394e-05
0.000282695932084626
-2.116444014294497e-05
0.000328976839397234
8.76621624101744e-06
1.331222183564553e-05
0.0003583816574390038
9.992704436923415e-06
-0.0001109558385353389
2.026533876004186e-05
-0.0001107159641119905
3.022681899877045e-05
-0.0001116221896615618
4.040444661682646e-05
-0.0001127421523855679
5.098902305213299e-05
-0.0001147192957522893
6.176928102319896e-05
-0.0001173428544615283
7.546014772345033e-05
-0.0001183425087779392
9.060389935281947e-05
-0.0001190736482914695
0.000104837500453877
-0.0001189118807466439
0.0001161195430441967
-0.0001166401731776806
0.0001232070372618656
-0.0001097677177361839
0.0001248801746709178
-9.565421582876063e-05
0.0001259051073617281
-7.234625245161406e-05
0.0001312413778899178
-5.357355285983155e-05
0.0001460716746831401
-5.285754993660029e-05
0.0001570245366708949
-7.021292620945832e-05
0.0001573709760848022
-9.663658973917087e-05
0.0001626108014234249
-0.0001082732509758965
0.0001738064297377048
-0.0001008665934660437
0.0001955142086946761
-8.085310751981173e-05
0.0002334275653193302
-5.928206763014597e-05
0.0002838840031883596
-4.155048087818971e-05
-3.389851357659796e-05
0.0003315634463562814
7.867916520317542e-06
-0.0001192680492082187
1.780284074514588e-05
-0.00012118011200478
2.842632249739763e-05
-0.0001227061582009972
3.979930519792659e-05
-0.0001246311645700109
5.201700215680396e-05
-0.0001275296452343592
6.477164166977583e-05
-0.0001308405504209409
7.897705386775128e-05
-0.000133442868370139
9.343943093720176e-05
-0.0001344966618799269
0.0001069311536742296
-0.0001334012713253036
0.0001187115389595498
-0.0001294263793975918
0.0001282577842425394
-0.0001202217072215574
0.0001359485497377416
-0.0001041320469588612
0.0001461931055843368
-8.307406997514079e-05
0.0001598639356115152
-6.729639062787942e-05
0.0001733012908132153
-6.599856984623391e-05
0.0001804563989377404
-7.664441928353401e-05
0.0001759983431479857
-9.164714950924949e-05
0.0001685444400196873
-0.0001014598647978752
0.0001676832972120459
-0.0001012135033818539
0.0001799606686032207
-9.403187283029335e-05
0.0002062918977641548
-8.612608566151833e-05
0.0002447481103583275
-8.035700819830502e-05
-7.798553980997812e-05
0.0002888121058826434
7.337587838869568e-06
-0.0001272154960440844
1.671271545693966e-05
-0.0001311682767017549
2.66890890689658e-05
-0.000133355214531414
3.755925098389691e-05
-0.0001361869471347173
4.929065847670787e-05
-0.0001399851615453749
6.182564048732687e-05
-0.0001441458047773437
7.494074887138103e-05
-0.000147354874863057
8.796406753977934e-05
-0.0001483127481120192
0.0001000929349713444
-0.0001462829655518511
0.0001113346588641862
-0.0001413614021286323
0.0001216032802702338
-0.0001310618197080931
0.0001304786048407287
-0.0001134978750619711
0.0001408350836066664
-9.390080606781771e-05
0.0001526584327911052
-7.961736455622635e-05
0.0001621708184045732
-7.568795844212513e-05
0.0001657778448722675
-7.971003885200663e-05
0.0001618146286696745
-8.707897355393562e-05
0.0001555066744062302
-9.513789447306766e-05
0.0001552545662788647
-0.0001012733244121362
0.0001664380737987388
-0.0001054189618483712
0.0001896829379922619
-0.0001093203471287127
0.0002234477241496347
-0.0001139023132063441
-0.0001186356408894529
0.0002646355341567674
6.749294059910977e-06
-0.0001343723471429016
1.489998128759906e-05
-0.0001397861545830241
2.364222023077619e-05
-0.0001425467380249341
3.312120716742805e-05
-0.0001461158471309934
4.342436482180763e-05
-0.0001507333036350323
5.43660728565573e-05
-0.0001555173690315414
6.553637581217525e-05
-0.0001589272557928374
7.626387891848454e-05
-0.0001594005227720281
8.590534260097942e-05
-0.0001562284446206198
9.489314519067749e-05
-0.0001505892674940958
0.0001031979221191698
-0.0001394907477004797
0.0001099476496792791
-0.0001203989177565614
0.000116880036994805
-0.0001010717463935384
0.0001250342953439499
-8.790954756791428e-05
0.0001312821019829851
-8.141305322521195e-05
0.0001329928518641567
-8.036086646019604e-05
0.0001303950451822648
-8.379921688457101e-05
0.0001286770687278667
-9.334785463902399e-05
0.0001333231785685196
-0.0001060107021466286
0.0001471853424842404
-0.0001192031109246635
0.0001705037081941539
-0.0001323798410018046
0.0002024853510197408
-0.0001455724524170628
-0.0001575770962848932
0.0002417656307273967
5.771918974803859e-06
-0.0001403078950099312
1.235355446752087e-05
-0.0001465218304586383
1.935112392577672e-05
-0.0001496909537937601
2.696848074010494e-05
-0.0001538528105945474
3.521352108305069e-05
-0.000159066607819613
4.382676076471141e-05
-0.0001641832844572081
5.23436624915823e-05
-0.0001674587243904549
6.017446930446822e-05
-0.0001672062024193363
6.689217159668686e-05
-0.0001628681840787217
7.261963869798077e-05
-0.0001561662785381069
7.720792055262957e-05
-0.0001438196953523055
8.014025693672355e-05
-0.0001231835302895337
8.450037828414082e-05
-0.0001052004302255584
8.992389797642363e-05
-9.270669692054413e-05
9.281448582863051e-05
-8.317045135989677e-05
9.19199109329022e-05
-7.852674320408639e-05
9.225237555377922e-05
-8.392700480007238e-05
9.713751199003404e-05
-9.836361423825587e-05
0.0001078275982178137
-0.000116716384165073
0.0001247412361995674
-0.000135946037506244
0.0001481015165822874
-0.0001554961843372889
0.0001779851418248001
-0.0001752698640329191
-0.000193749699295138
0.0002142938458188277
4.442762997645157e-06
-0.0001446735422686484
9.22554989339632e-06
-0.0001512119030786056
1.424488731216527e-05
-0.0001545938895063194
1.967080224491826e-05
-0.0001591407525328769
2.541164850770444e-05
-0.000164643085534778
3.113658027195014e-05
-0.0001697160579089411
3.639661769909438e-05
-0.0001725016608773157
4.078733295828579e-05
-0.0001713491007564822
4.438297711698961e-05
-0.0001661605765207985
4.617716023622013e-05
-0.0001575891013098347
4.647142817734258e-05
-0.0001436587300876529
4.677573520655389e-05
-0.0001230634189213742
4.852220578398158e-05
-0.0001062601528655384
5.010081009666244e-05
-9.32602965564299e-05
4.937968877297233e-05
-8.155040054199778e-05
5.009228349923372e-05
-7.908139892879109e-05
5.730991609207687e-05
-9.134784457840011e-05
6.88321271953281e-05
-0.0001099273812669737
8.318965393150238e-05
-0.0001309078908017658
0.0001006381650140228
-0.0001531493226964645
0.0001220127863134734
-0.0001766418483251489
0.0001480174904323755
-0.0002011138790328492
-0.0002248896118796424
0.0001793065649604565
2.877830705027742e-06
-0.0001473268319085177
5.743334035894875e-06
-0.0001538353206879928
8.649141412944627e-06
-0.0001572457360464194
1.167679731026844e-05
-0.0001619010702310224
1.461010928305888e-05
-0.0001672945821655224
1.706358335200908e-05
-0.000171875101127804
1.863897600826682e-05
-0.0001737671018548119
1.914179001271085e-05
-0.000171509605867207
1.852984285625234e-05
-0.0001651506585507941
1.58935087704698e-05
-0.0001544894244001388
1.209640288905345e-05
-0.0001393254012967784
9.933321190204212e-06
-0.000120280812755121
8.931548882237085e-06
-0.0001044380123639179
8.117116762847645e-06
-9.176019265595121e-05
9.858589474628675e-06
-8.334673141198096e-05
1.872789927505488e-05
-8.824008263434904e-05
3.19115011664609e-05
-0.0001044884263325907
4.553778575417893e-05
-0.0001233187522843384
5.945158521012604e-05
-0.0001445424658274347
7.467112055476985e-05
-0.0001681012905455317
9.212296151472435e-05
-0.0001938519676710401
0.0001126630232800454
-0.0002214426688838695
-0.0002491709888540766
0.0001371354741469414
1.198835074775327e-06
-0.0001482309014230374
2.115516190579579e-06