/*--------------------------------*- C++ -*----------------------------------*\
| =========                 |                                                 |
| \\      /  F ield         | OpenFOAM: The Open Source CFD Toolbox           |
|  \\    /   O peration     | Version:  2206                                  |
|   \\  /    A nd           | Website:  www.openfoam.com                      |
|    \\/     M anipulation  |                                                 |
\*---------------------------------------------------------------------------*/
FoamFile
{
    version     2.0;
    format      ascii;
    arch        "LSB;label=32;scalar=64";
    class       volScalarField;
    location    "0.3";
    object      rho;
}
// * * * * * * * * * * * * * * * * * * * * * * * * * * * * * * * * * * * * * //

dimensions      [1 -3 0 0 0 0 0];

internalField   nonuniform List<scalar> 
2268
(
1001.360172530582
1001.360172732224
1001.36017284136
1001.360172983014
1001.360173151615
1001.360173332103
1001.360173516887
1001.360173699959
1001.36017387283
1001.360174023484
1001.360174135977
1001.360174189693
1001.360174134744
1001.360173800516
1001.360172697605
1001.360169679981
1001.360162391339
1001.360145366104
1001.360105967272
1001.360012468863
1001.359769814052
1001.358995476327
1001.196163064859
1001.360180661575
1001.360180907164
1001.360181070159
1001.36018128462
1001.360181538384
1001.360181812558
1001.360182096346
1001.360182379341
1001.360182647788
1001.36018288448
1001.360183069275
1001.360183178752
1001.360183131349
1001.360182610989
1001.360180755159
1001.360175750118
1001.360164217341
1001.360139384912
1001.360087639919
1001.359977931961
1001.359720840181
1001.35895343448
1001.242953473824
1001.360187680726
1001.360187880938
1001.360188011345
1001.360188168994
1001.360188339694
1001.360188502696
1001.360188639696
1001.360188731471
1001.360188759765
1001.360188713818
1001.360188598701
1001.360188441834
1001.360188170169
1001.36018728222
1001.360184392933
1001.360176776733
1001.36015951348
1001.360124135079
1001.360056593624
1001.359927970488
1001.359656986177
1001.358905563927
1001.202054748122
1001.36018926901
1001.360189157904
1001.360188909644
1001.360188551209
1001.360188066244
1001.360187421616
1001.360186570484
1001.360185464211
1001.360184073994
1001.360182422747
1001.36018062412
1001.360178918499
1001.36017740178
1001.360175469772
1001.360171319065
1001.36016155476
1001.360139354549
1001.360093356991
1001.360009866542
1001.359863296139
1001.359582274302
1001.358857687848
1000.790470915575
1001.360174268464
1001.36017314626
1001.360171538359
1001.360169409073
1001.360166716003
1001.36016336889
1001.360159223973
1001.360154130853
1001.360148008362
1001.36014094722
1001.360133333009
1001.360125961333
1001.360119444336
1001.360113375563
1001.360106310604
1001.360095922056
1001.360074605517
1001.360023590563
1001.35993048524
1001.359773823729
1001.359492729415
1001.358809622679
1000.650560265003
1001.360119141319
1001.360115467041
1001.360110312318
1001.360103649418
1001.360095333779
1001.360085104247
1001.360072546543
1001.360057213977
1001.360038832175
1001.360017559423
1001.35999428661
1001.359970896502
1001.359948991358
1001.359928711975
1001.359910750804
1001.359898888447
1001.359892718071
1001.359854101533
1001.35977250689
1001.359629347308
1001.35937198527
1001.358754414633
1000.649527605974
1001.359982116638
1001.359973043882
1001.359960347585
1001.359944073926
1001.35992384357
1001.359899000592
1001.359868493474
1001.359831160112
1001.35978620602
1001.359733760083
1001.359675480924
1001.359614978504
1001.35955523155
1001.359496405789
1001.359443085184
1001.359415003502
1001.359441837912
1001.3594493609
1001.35942870938
1001.359356111475
1001.359177200666
1001.358671741703
1000.651649873334
1001.359700131959
1001.35968115014
1001.359654787747
1001.359620912584
1001.359578799371
1001.359527028258
1001.359463242359
1001.359384824182
1001.359289896783
1001.359178366264
1001.359052995999
1001.358919856331
1001.358783576033
1001.358640710807
1001.358495980242
1001.358398965462
1001.358444374457
1001.358550323023
1001.358683983225
1001.358797068251
1001.358810562313
1001.358511768097
1001.100935631095
0.9652095480389674
0.9652101371832377
0.9652101791357666
0.9652108980670706
0.9652116885854997
0.9652123985594399
0.9652127988777565
0.9652128514138762
0.9652125284274001
0.9652118184017946
0.9652108010990426
0.9652095957208249
0.9652083310158514
0.9652071155789788
0.9652060281515018
0.965205128409613
0.9652044593429018
0.9652040328413013
0.9652037843243985
0.9652089884909065
0.96520966206494
0.9652096434172495
0.9652104774496142
0.9652115210653364
0.9652128238005424
0.9652131421811991
0.9652127730466266
0.9652122853783831
0.9652115225699026
0.965210481906139
0.9652092524190127
0.9652079642795061
0.9652067278270247
0.9652056231033853
0.9652047109998436
0.9652040351054105
0.9652036035004848
0.9652033214754491
0.9652083129731122
0.9652092246468537
0.9652090605645655
0.965210518674227
0.9652146916258513
0.9652232650521491
0.9652219159717056
0.9652158081045611
0.9652128830355127
0.965211399836173
0.9652101887413956
0.9652089051851819
0.9652075838649778
0.9652063213612064
0.9652051968223165
0.965204271126797
0.9652035868822616
0.9652031475530481
0.9652028463351331
0.9652073871138795
0.9652138733304757
0.9652092737784548
0.9652162941135921
0.9652497587262321
0.965318141350501
0.9652992519197533
0.9652461234532911
0.9652213398824633
0.9652129363665485
0.965210175644599
0.9652086052761568
0.9652072138542427
0.9652059141433705
0.9652047630181085
0.9652038178934153
0.9652031202029149
0.9652026686087972
0.965202349800479
0.9652132716615149
0.9654775430890168
0.9652174255811408
0.9652696555206527
0.9654975805594943
0.9659048560756658
0.965757714214916
0.9654445215211209
0.9652829638303225
0.9652266431552559
0.9652122564458755
0.9652085889092845
0.9652068758334147
0.9652055034446685
0.9652043160463573
0.9652033454133249
0.9652026290729478
0.965202161184348
0.9652018223110844
0.9659279446175846
0.9712039444936719
0.9653110307531838
0.9656276707344881
0.9668003372493731
0.9685408203273976
0.9677235247280511
0.966399587335086
0.9656138193207816
0.9653094917486641
0.9652274920945294
0.9652104703048213
0.9652067693180416
0.9652051171772557
0.9652038649785438
0.9652028605876289
0.9652021204876994
0.9652016323966212
0.9652012666169163
0.9498615070208511
1.023898618216366
0.96564992077947
0.9676563712539851
0.9722424302662956
0.9773600566786557
0.9740452954605636
0.9698876580675034
0.9669845360029847
0.9656992118847165
0.9653090524469896
0.9652229894832224
0.9652080381636644
0.9652048624794453
0.9652034021515756
0.9652023506903468
0.9652015849339407
0.965201074443481
0.9652006974497911
31.11444708641957
14.31187287817547
1.354530368314177
0.9807311023846761
0.9918378723828287
0.9999020521671117
0.9898979497400381
0.979722239307083
0.9714439459351756
0.9671644795089103
0.9656614638270062
0.9652850018960423
0.9652165882358668
0.9652054513640833
0.965202938162476
0.9652017505633581
0.9652009515445287
0.9652004230990058
0.9652000397014203
1001.359189564575
1001.359154195794
1001.359106318156
1001.35904380151
1001.358965929704
1001.358869957033
1001.358751140688
1001.358604344381
1001.358425910478
1001.358215459829
1001.357977667192
1001.357722327393
1001.357456659839
1001.357162385214
1001.356816038739
1001.356502986171
1001.356392766906
1001.356556289448
1001.356777037717
1001.357060299568
1001.35737698729
1001.357579588967
1001.356600877714
1001.357629122957
1001.357551807035
1001.357444346863
1001.357303089225
1001.357126558981
1001.356907925492
1001.356635671041
1001.356298121239
1001.355887995516
1001.355406932905
1001.354869492136
1001.354300956611
1001.35372457175
1001.353057864379
1001.352082869918
1001.35098514982
1001.350265014852
1001.350548638015
1001.3511995728
1001.352171411793
1001.353335273878
1001.354455856606
1001.354919764545
1001.354752794372
1001.354617972729
1001.354417793589
1001.354152120488
1001.353818761957
1001.353403059258
1001.352882406742
1001.352236544594
1001.351458124186
1001.350565922967
1001.349609517494
1001.348652992031
1001.347765154263
1001.346685133872
1001.344479058909
1001.341401401554
1001.338597264732
1001.337833758437
1001.339376324745
1001.341604262115
1001.344149559545
1001.346716181497
1001.348920403647
1001.350231717159
1001.350035603964
1001.349716646357
1001.349286922145
1001.348745462058
1001.348061864819
1001.34719409047
1001.346115457755
1001.344853162019
1001.343503989703
1001.342193590755
1001.341004910684
1001.340073993208
996.5701120578404
977.657393152411
946.3533073957532
913.0478015134086
890.9018120162458
906.9897908143133
957.3175769267364
1001.32702868335
1001.332106818578
1001.336489947069
1001.344047010851
1001.343796568116
1001.343365773009
1001.342760852645
1001.341989978246
1001.340969561761
1001.339561413401
1000.414778427445
985.9466854370206
947.8233289625949
879.4571160939763
781.0173334950144
642.1083894820829
485.5930297672456
348.2453401211972
242.6381495052572
168.9238738480601
132.5559914634682
146.6616021655967
192.0349824737632
276.2434374796441
414.9813324696791
587.552818713844
917.5114689143024
911.6090568840816
894.7900149863685
865.4326191797882
820.51465084738
756.3138391826387
669.1190674607543
529.2969654441523
385.8236570662902
250.2563879714315
135.3513944178328
43.66967114608006
1.220879722748084
1.215414216738893
1.209997387015701
1.177188318151748
1.122210007454144
1.102485979477998
1.097498714201393
1.111905456263363
1.1319913376446
1.971017819136623
17.31569245172992
183.0384822661442
174.9752678508295
152.4486228725886
119.6436464427132
80.68048074681747
40.11991885418005
1.220741542784242
1.213486151409784
1.195826232130955
1.177669824065007
1.161324509954491
1.149797064051715
1.156220377105847
1.159455924073996
1.135763817186923
1.114868140607819
2.060527157287756
3.272933580313149
3.262014327391776
1.69724269687652
1.086120645233332
1.109059285472054
1.124482826899205
1.16958050295653
1.167220167246678
1.16070453724465
1.153924083286224
1.143927060118003
1.13162919118576
1.117650139324433
1.102505909294659
1.088334120747763
1.07666919595999
1.069516533361891
1.068670435614156
1.083129418384844
1.094112024185936
1.094831515137842
1.091043870488144
1.230031366879371
1.605679009864211
1.248910874838943
1.031699921004865
1.019425440495998
1.021528381583312
1.026819148711557
1.081318554063231
1.076405325046608
1.071833187578769
1.065317781616912
1.056723452925382
1.046475656344944
1.035839263993018
1.026285407061995
1.01881390361599
1.014147852001352
1.013195436854154
1.016199233907569
1.024824398665588
1.035789590614716
1.050126257562182
1.052068150165231
1.044579619566927
1.024613506572797
1.003404617232347
0.9902317972240142
0.9852007074875334
0.9848502251299932
0.9873864724032269
1.022148608454019
1.018073149143225
1.014073165195549
1.009461818180904
1.003685153155791
0.9973634271544017
0.991551393677744
0.9871656638327586
0.9848319807206074
0.9847428863341412
0.9889019900225057
0.991388155124196
0.9970606749652593
1.005552247734907
1.026086485088011
1.070555082527746
1.046027308269892
1.005190532872867
0.9882253792425163
0.9799383827464001
0.9784237646765935
0.9800554490801582
0.9832355404801761
0.9888070434764541
0.985665312442596
0.9833982942090191
0.9807283110751509
0.9776623384487235
0.9746973538565926
0.972523741007512
0.971762860910114
0.9728219359346935
0.9928725421241217
1.052385501852353
1.017522481602237
0.9924633717103288
1.020138289089799
1.145116424740022
1.159775277234925
1.08127378178762
0.9906330794151056
0.9786823445053081
0.974341583426802
0.9741549358080842
0.9750797589066789
0.9763558661106262
0.9725249644880182
0.9710033311942435
0.969882334083862
0.968779965868618
0.9676334204735895
0.9668002719929121
0.9668015152435976
0.968172131034989
0.9712958711452901
1.038574066076065
1.070308341952139
1.042880757558627
1.06095104511252
1.175555949345057
1.182227019773986
1.150346176441091
1.008879224164088
0.9766415363887123
0.9708445604051718
0.9697992390410997
0.9700136608318268
0.9702425285434089
0.9708629682762138
0.9662995812839728
0.965771005707275
0.9654666104381734
0.9651854697798408
0.9650084124011834
0.96520783332386
0.9662847399593335
0.9687684099975995
0.9733039059868793
1.001580790409436
1.047093537072867
1.004111857687876
1.092145378148796
1.16828396234799
1.096779444585185
0.9865186135354564
0.9723839349100758
0.9676265420647753
0.9670583178389373
0.9672716118484026
0.9673748169766851
0.9675522956947036
0.9685412410659836
0.9646772353666279
0.9646355173788534
0.9646291989745985
0.9646692085427989
0.9648403123926194
0.9653930249911827
0.967028104280059
0.969984057853664
0.9792091976565566
0.9794494425543779
0.9851597744559096
0.9908877194770102
0.9983283156559148
0.9957953797350078
0.9774815862618567
0.966245889270906
0.9652737156908086
0.9656659477166596
0.965943874924858
0.966019175254472
0.9660769040329943
0.9664850451979755
0.9678486350541192
0.9646509216635232
0.9647074169453514
0.9647575725983539
0.9648484246867854
0.9650680228505031
0.9656828754051435
0.9673764458280026
0.9703067583717044
0.9753492613045055
0.9777388225733007
0.9810941641828517
0.9832927397822732
0.9820072526481077
0.9715612164716169
0.9617939102110545
0.9649097859043853
0.9654120259739939
0.9653493213259301
0.9653858881048664
0.9654035475054112
0.9655377850493158
0.9660791393225746
0.9675816924988017
0.9648661627011162
0.9649045721247966
0.9649349362890755
0.964994000048345
0.9651782372359504
0.9657488560789347
0.967083434920005
0.9695523654985363
0.9718450616620257
0.9736277039222813
0.9738208085771665
0.9721137201477505
0.9680269668888409
0.9645461150046923
0.9648481944057187
0.9651092232306795
0.9651320035323857
0.9650903363525041
0.9651189250642903
0.965152434123722
0.9653139529578644
0.9658492416036963
0.9673072788858623
0.9649799578116994
0.9649873925503004
0.964993262015071
0.9650208381671687
0.9651525240344907
0.965573200316082
0.9664772539305329
0.9682274293617004
0.9697226813965827
0.9699040553348337
0.9683177654894469
0.9667432812134968
0.9653818087883697
0.964852733452792
0.9648030735234989
0.9650301110626017
0.9650208369922749
0.9649981409509418
0.9650187173985094
0.9650537139671372
0.9651961205884217
0.9656502182081184
0.9669081723304462
0.9649918894577457
0.9649863063119446
0.9649829731655547
0.9649928902970628
0.9650623336887736
0.9652852798731758
0.9657487223015577
0.9669212927009744
0.9676523078359601
0.9673479720932231
0.9662279140385819
0.9654838366189328
0.9649610260930559
0.9648085063382887
0.9649206220455606
0.9649949728138749
0.9649773133438925
0.9649678513460984
0.9649810473265711
0.9650047860518897
0.9651015270782047
0.9654161195069995
0.966316498131354
0.9649705029634758
0.9649665518506444
0.9649641901839403
0.9649658139899712
0.964986717999737
0.9650615922100914
0.9652309446684905
0.9655862395522584
0.9660817579630504
0.9656931484120804
0.9654352161853101
0.9650845639650987
0.9648712391965378
0.9648685598779554
0.9649498546674604
0.9649794449708962
0.9649621170843194
0.9649593215835194
0.9649661657533349
0.9649770734022869
0.9650258771171207
0.9651910723019935
0.9656857914561436
0.9649581790460623
0.9649580989342376
0.9649578744123786
0.9649567804429532
0.9649547054052996
0.9649585539217697
0.9649862174617233
0.965047687823911
0.9651166818893011
0.9651264724780042
0.9650433370270625
0.9649262463118434
0.9648758541926814
0.9649132018161639
0.9649631219486013
0.9649695216049705
0.9649572984466476
0.9649572597540564
0.9649603193733139
0.96496358487152
0.9649823449954665
0.9650485213898128
0.965255928824532
0.964958792420384
0.9649595176786436
0.9649597202762197
0.9649585259231533
0.9649528770754034
0.9649401681289413
0.9649229779962372
0.9649106144034959
0.9649099858334148
0.9649143596299611
0.9649098922854262
0.9649011623866361
0.964910544680501
0.9649416285465914
0.9649646262838029
0.964963134956128
0.9649559995328961
0.9649568153992022
0.9649580188878357
0.9649582479039597
0.9649636935570906
0.9649842099038221
0.9650531381625516
0.9649614683619405
0.9649614090683226
0.9649611777349669
0.9649605110412733
0.9649580914487162
0.9649513466020077
0.9649379839134263
0.964919636611383
0.9649036589847965
0.964898424898555
0.9649052194019117
0.9649199293363726
0.9649381656930973
0.9649549577226968
0.9649619945011959
0.9649590285524802
0.9649558240242483
0.9649566199618494
0.9649570159183328
0.9649565773893426
0.9649576835050538
0.9649624603440634
0.9649804461076616
0.9649606310554444
0.9649602576872723
0.9649599076661621
0.9649596035852016
0.9649592829896373
0.9649583350876517
0.9649554257768288
0.9649494125423301
0.9649413948077405
0.9649354575281144
0.9649357834756355
0.9649426977522452
0.9649518971245852
0.9649580522582855
0.9649588379245081
0.9649567907040036
0.9649558154396312
0.9649563555472844
0.9649564459041662
0.9649561159518383
0.9649561809092778
0.9649568720443403
0.9649605763662921
0.9649585856208009
0.9649584300100106
0.964958244198835
0.9649581121978484
0.9649580613445198
0.9649580754047213
0.9649580143188974
0.9649575271165304
0.964956293691232
0.9649546281402468
0.964953640506138
0.9649542284848095
0.9649558459220735
0.9649568762833056
0.9649565437290907
0.9649557696359048
0.9649556642800359
0.9649559879688913
0.9649560432916441
0.9649559474564318
0.9649558988307162
0.9649558652437518
0.9649564393280879
0.9649577459717918
0.9649576703474619
0.9649575328367388
0.964957428193881
0.9649573432878334
0.964957253389482
0.9649571619510942
0.9649570726419955
0.9649569308101571
0.9649566461580295
0.9649562274452804
0.9649558319906346
0.9649555875130444
0.9649554319104279
0.9649552723383377
0.9649552053213015
0.9649553467911031
0.9649555708616537
0.9649557136935265
0.964955805751206
0.9649558574428682
0.9649558570678948
0.9649559949740584
0.9649571529672544
0.9649570233106888
0.9649568495344362
0.9649566821168953
0.9649565229259579
0.9649563356371503
0.964956093569902
0.9649558134284578
0.9649555364769273
0.9649552834636398
0.9649550442369583
0.9649548165725326
0.9649546370018347
0.9649545552313579
0.9649545888192037
0.9649547202742466
0.9649549213165677
0.9649551592100326
0.9649554026245736
0.9649556299562961
0.9649558140193164
0.9649559652694075
0.9649561814851886
0.9649560365812729
0.9649559554530777
0.9649558233161648
0.9649556969760462
0.9649555872061497
0.9649554737413241
0.9649553187047262
0.9649550949000626
0.9649548124949385
0.964954516722168
0.9649542599488269
0.9649540770039663
0.9649539824624271
0.9649539799293033
0.9649540668725685
0.9649542346822966
0.9649544708994846
0.964954761169543
0.9649550854540381
0.9649554137199644
0.9649557169455286
0.9649560112600988
0.9649563671382176
0.964955198602138
0.9649551344108345
0.9649550236840146
0.9649549126772398
0.9649548142620537
0.9649547161255837
0.9649545923636214
0.9649544225880691
0.9649542062586159
0.9649539653492329
0.9649537373562604
0.9649535621628478
0.9649534694260725
0.9649534729680067
0.9649535731615418
0.964953762934707
0.9649540326131181
0.9649543700495963
0.9649547558934882
0.9649551606937286
0.9649555586184967
0.9649559669556803
0.9649564446710986
0.9649542845846529
0.9649542413338323
0.9649541557933191
0.9649540660417341
0.964953987189895
0.9649539158768623
0.9649538325887592
0.9649537157543054
0.9649535579771026
0.9649533726956798
0.9649531898145628
0.9649530454381487
0.9649529713133167
0.9649529877807098
0.9649531020877919
0.9649533116293418
0.964953608793628
0.9649539824686407
0.9649544143630501
0.9649548765962875
0.9649553454332728
0.9649558379347425
0.9649564073430767
0.9649533890504199
0.9649533638774405
0.9649533022507986
0.9649532351236603
0.964953177397056
0.9649531307235371
0.9649530817076659
0.9649530111145953
0.9649529077561501
0.9649527771927086
0.9649526416462975
0.9649525330923369
0.9649524836169349
0.9649525173664344
0.9649526467372662
0.9649528734615458
0.9649531923861908
0.964953593607395
0.9649540600282283
0.9649545652305422
0.9649550861757415
0.964955638002303
0.9649562701730784
0.9649524922006371
0.9649524819840603
0.9649524414458676
0.9649523957721258
0.9649523590885997
0.9649523367628392
0.9649523205119352
0.9649522937043931
0.9649522429452977
0.9649521675319321
0.9649520824224416
0.964952014394646
0.9649519941819735
0.9649520482543797
0.9649521934035761
0.9649524356616985
0.9649527726002594
0.9649531955802968
0.9649536885751079
0.9649542265099753
0.9649547861684644
0.9649553786529815
0.9649560493937486
0.9649515947503388
0.9649515958200953
0.964951572699815
0.9649515460637468
0.9649515290837942
0.9649515294523352
0.9649515429535818
0.9649515558038231
0.9649515537643208
0.9649515314574584
0.9649514973306931
0.9649514725560456
0.964951485201767
0.9649515625792686
0.9649517248924057
0.9649519822700426
0.964952335247603
0.9649527766531225
0.9649532915535862
0.9649538561990364
0.9649544467952418
0.9649550688599807
0.9649557614116906
0.9649506947588788
0.9649507034420619
0.9649506934071225
0.964950682279658
0.9649506823657082
0.9649507028177764
0.9649507425312805
0.9649507903746782
0.9649508320888558
0.9649508589394336
0.964950873905307
0.9649508927940506
0.9649509404189784
0.9649510437813877
0.9649512253303187
0.9649514985856561
0.9649518670464741
0.9649523252975861
0.9649528596176765
0.9649534475531411
0.9649540647677359
0.9649547105343117
0.9649554152197262
0.964949790760922
0.9649498033231674
0.9649498020346996
0.9649498023866869
0.964949816164041
0.9649498534244656
0.9649499154064117
0.964949993302922
0.9649500732935614
0.964950144299069
0.9649502048074613
0.9649502657725191
0.9649503485719808
0.9649504791955245
0.9649506813641017
0.964950971209386
0.9649513549806326
0.9649518293608401
0.9649523820827304
0.9649529918644526
0.964953633973721
0.9649543018287954
0.9649550156689733
0.9649488810552836
0.9649488942577578
0.9649488976563582
0.9649489055483803
0.9649489294638404
0.9649489800838454
0.9649490603452757
0.9649491634345343
0.9649492762226194
0.9649493860813656
0.9649494879126421
0.9649495883684904
0.9649497053473253
0.9649498633157955
0.964950086590018
0.9649503934074354
0.9649507925651366
0.9649512828515261
0.9649518534794861
0.9649524843004733
0.9649531504665474
0.9649538404299781
0.9649545640560708
0.9649479641657891
0.9649479751781078
0.9649479799680657
0.9649479919955747
0.9649480228622437
0.9649480836572814
0.9649481785630164
0.9649483023495611
0.9649484426587609
0.964948585851536
0.9649487240617836
0.9649488602671995
0.9649490091369428
0.9649491933868016
0.9649494374148312
0.9649497610070199
0.9649501752040636
0.9649506809295643
0.9649512689416895
0.964951920170997
0.9649526097855976
0.9649533223818297
0.9649540588106587
0.9649470384048552
0.964947045252302
0.9649470490793172
0.9649470628220796
0.9649470982736122
0.9649471667924614
0.9649472734204798
0.9649474141468112
0.9649475772820615
0.9649477485825425
0.9649479181136079
0.9649480859255135
0.9649482639176034
0.9649484730559514
0.9649487374507099
0.9649490778470806
0.9649495070180757
0.9649500277298808
0.96495063229654
0.9649513027506422
0.9649520145141635
0.9649527495349209
0.9649535012955266
0.9649461023163246
0.9649461038716
0.9649461056244646
0.9649461198787121
0.9649461586687368
0.9649462334829996
0.9649463498883141
0.9649465046938306
0.9649466867501
0.9649468814161329
0.9649470772891428
0.9649472722209098
0.9649474759169135
0.9649477078598812
0.9649479916690381
0.9649483485476641
0.9649487923962995
0.9649493274145797
0.9649499473002608
0.9649506351808483
0.9649513669190897
0.964952122809127
0.96495289142924
0.9649451542338574
0.9649451508261047
0.9649451508593747
0.9649451659780417
0.9649452082657576
0.9649452891539012
0.9649454144055517
0.9649455813049783
0.9649457790486159
0.9649459927749615
0.9649462101562312
0.9649464276594957
0.9649466536081227
0.9649469064615748
0.9649472093252278
0.9649475833027694
0.9649480424828198
0.964948591596967
0.9649492252159937
0.9649499276333446
0.9649506756473104
0.9649514492202993
0.9649522341041553
0.9649441927655051
0.9649441868267584
0.9649441874946352
0.9649442055973214
0.9649442531222684
0.9649443410258539
0.9649444748889405
0.9649446521789543
0.9649448623613817
0.9649450906854941
0.9649453246046882
0.9649455601229986
0.9649458050022065
0.9649460771862087
0.9649463992118906
0.9649467914459421
0.9649472671823383
0.9649478305506437
0.9649484762013979
0.9649491893910199
0.9649499484598776
0.9649507343441044
0.9649515321983075
0.9649432224804629
0.9649432162629249
0.9649432219288513
0.9649432476921711
0.9649433042161839
0.964943401030357
0.9649435428626497
0.9649437272001578
0.964943944414884
0.9649441811888338
0.9649444264138356
0.9649446770384594
0.9649449408962146
0.9649452349587276
0.9649455798796431
0.9649459935939588
0.9649464869274686
0.9649470622987515
0.9649477141768342
0.9649484296478759
0.9649491904622172
0.9649499808267681
0.9649507869569832
0.9649422605869794
0.9649422587463643
0.9649422773888963
0.9649423192688688
0.9649423913496362
0.9649424992313366
0.964942645232494
0.964942827196816
0.9649430390230642
0.9649432733184581
0.9649435252166725
0.9649437954751513
0.9649440912541988
0.964944424025856
0.9649448057877251
0.9649452457027344
0.9649457487552907
0.9649463163915255
0.9649469473522432
0.9649476371907915
0.9649483779605578
0.9649491622328082
0.9649499790054205
1001.356340800574
1001.356048923728
1001.355684395734
1001.355203527172
1001.354955657433
1001.354881331946
1001.354731278857
1001.354512708577
1001.349655621778
1001.350136288475
1001.350443401646
1001.350626188062
1001.338148916871
1001.339493333473
1001.340580728206
1001.34147704677
712.0887931416836
802.9665593497599
920.4572565878437
1000.447323139215
40.44808651953051
64.11077342089642
99.35992934204255
146.6676124962594
1.12963288641904
1.133010915191048
1.136081358468023
1.136980414351056
1.028901400191974
1.030617366276701
1.032952395334257
1.03518462774829
0.9887719216241311
0.9902508623378914
0.9920313174728589
0.9934091797139278
0.9847219733556916
0.9861585511073598
0.9877736416899126
0.9891586087457054
0.9769536917874926
0.977620477927909
0.9786456419459448
0.9796087030129241
0.9713754565619045
0.9723139987640772
0.9740157913054729
0.9760121607227277
0.9696512477978672
0.9716173238893835
0.9747069527609538
0.9786835676165249
0.9697962740785224
0.9728249377935068
0.9771391687251134
0.9831389003972262
0.9703238925703488
0.9739520814712663
0.9790011345599605
0.9861933428961689
0.9704348865775992
0.9740482539026686
0.9792258188042963
0.9864748194408974
0.9697695236248248
0.9729536029275618
0.9776217548647014
0.9841180865558153
0.9684323243745635
0.9708586414505549
0.9744903574852741
0.9796884938516729
0.9669019639869049
0.968352498692154
0.9705975496777871
0.9739288316085997
0.9657896496335014
0.9664494745097162
0.967502253196059
0.9691165012292503
0.9652422954684403
0.9654879377467471
0.9658945086031807
0.9665386227326638
0.9650335818183587
0.9651062919008223
0.9652322075033676
0.9654410706236648
0.964972868067266
0.9649905890108258
0.9650226756016768
0.9650783308295207
0.9649588439253672
0.9649624646357672
0.9649693016782029
0.9649816480020875
0.9649565020488196
0.964957199453257
0.964958500763568
0.9649608544850604
0.9649564590606461
0.9649567018680854
0.9649570392689799
0.9649575220189002
0.964956695345204
0.9649569308212095
0.9649571814506513
0.9649574349123968
0.964956850664821
0.9649571365270961
0.9649574297290567
0.9649577186383336
0.9649568776806104
0.964957210689398
0.9649575511338623
0.9649578969188235
0.9649567854934445
0.9649571548145167
0.964957530979434
0.9649579210367795
0.9649565904077523
0.9649569858862085
0.9649573869946345
0.9649578076525339
0.9649563113572786
0.9649567233750569
0.9649571405923418
0.9649575811726855
0.9649559623401621
0.9649563828829245
0.9649568094851374
0.9649572623363893
0.9649555543369185
0.9649559771142173
0.9649564080159447
0.9649568677845904
0.9649550935489207
0.9649555142648459
0.9649559457999284
0.9649564088953682
0.9649545832137228
0.9649550002352768
0.9649554303003199
0.9649558942217814
0.9649540255081072
0.9649544383069629
0.9649548655693588
0.9649553286775617
0.964953421107649
0.964953831084942
0.9649542556138565
0.9649547170070046
0.9649527725503667
0.9649531807779893
0.9649536028544659
0.9649540624007359
0.9649520802850815
0.9649524883806346
0.9649529092146841
0.9649533675586998
0.9649513445425126
0.964951754498991
0.964952176705543
0.9649526366464268
0.9649505557361364
0.9649509769473623
0.9649514110827635
0.9649518827543645
1001.353357480398
474.2735023770909
1.450907821367845
8.199570510051267
1.126659481011379
1.049305958524358
1.024307464317323
1.002750595743063
0.9836009687096139
0.97185298283141
0.9669873370095182
0.9655564817495931
0.9652617215161693
0.9652112376870224
0.9652028068168413
0.9652008623636472
0.9651999648257377
0.9651994162213533
0.9651990359303967
1001.353535142399
985.4660313678166
955.1401543612756
783.3050843709563
177.8866494821375
14.01540052216159
1.13915567652778
1.080449856195308
1.030712946666025
0.9935172681335116
0.9744274471814162
0.9674401388269853
0.9656513232388912
0.965276848159738
0.9652105417430642
0.9652001969655366
0.9651982726000536
0.9651975772341116
0.9651971675510682
1001.350491025387
1001.349366168515
1001.345256447924
1001.096815603893
1001.334026539388
850.7523375848031
187.5524130826641
5.331783709509168
1.125780063579947
1.049122167599116
0.9987881986316293
0.9755297049735212
0.9677951831337239
0.9657248434104242
0.9652828327136034
0.9652076273368582
0.9651971012269354
0.9651955123980677
0.9651950194344929
1001.342872704988
1001.343280146479
1001.342494376637
1001.34060791148
1001.337172204626
1001.332999581568
1001.328922945373
697.768975820523
69.40360323336202
1.135515484889645
1.049761155078832
0.9981556918535308
0.9755094785354747
0.9677459984693739
0.9656868239535437
0.9652665198791753
0.9652013055562292
0.9651934937421711
0.9651925259429004
1001.332896680605
1001.33466095253
1001.335745861423
1001.335868923256
1001.334757908267
1001.33235390808
1001.328861784141
1001.324617457863
837.712703424252
125.7184646225731
1.1381341311753
1.043494035264603
0.9944689065239271
0.9739210358536876
0.9671941264352008
0.9655343320222246
0.9652324416662433
0.9651932482059911
0.9651896457090087
215.9973889430296
311.9514286183522