/*--------------------------------*- C++ -*----------------------------------*\
| =========                 |                                                 |
| \\      /  F ield         | OpenFOAM: The Open Source CFD Toolbox           |
|  \\    /   O peration     | Version:  2206                                  |
|   \\  /    A nd           | Website:  www.openfoam.com                      |
|    \\/     M anipulation  |                                                 |
\*---------------------------------------------------------------------------*/
FoamFile
{
    version     2.0;
    format      ascii;
    arch        "LSB;label=32;scalar=64";
    class       volScalarField;
    location    "0.3";
    object      T.air;
}
// * * * * * * * * * * * * * * * * * * * * * * * * * * * * * * * * * * * * * //

dimensions      [0 0 0 1 0 0 0];

internalField   nonuniform List<scalar> 
2268
(
272.9999671223002
272.999966302528
272.9999658588363
272.9999652829425
272.9999645974932
272.9999638637202
272.9999631124817
272.9999623682072
272.9999616654001
272.9999610529152
272.9999605955757
272.999960377196
272.9999606005899
272.9999619593927
272.9999664432664
272.9999787113955
273.0000083433164
273.0000775592767
273.0002377348754
273.0006178516164
273.0016043606046
273.0047524031953
273.0209097546506
272.9999340657914
272.9999330673519
272.9999324046967
272.9999315328029
272.9999305011311
272.999929386475
272.9999282327396
272.9999270822263
272.999925990854
272.9999250285857
272.9999242773023
272.9999238322235
272.9999240249426
272.9999261404595
272.999933685324
272.9999540332853
273.0000009197054
273.0001018757453
273.0003122445347
273.0007582609151
273.0018034627616
273.0049233221794
273.0206552610744
272.9999055294703
272.9999047155127
272.9999041853428
272.9999035444191
272.9999028504437
272.9999021877601
272.9999016307878
272.999901257675
272.9999011426476
272.9999013294448
272.9999017974544
272.9999024351989
272.9999035396494
272.9999071495992
272.9999188959756
272.999949859578
273.0000200432017
273.0001638737979
273.0004384629022
273.0009613785162
273.0020630596322
273.0051179373883
273.020251577135
272.9998990723223
272.9998995240255
272.9999005333254
272.999901990544
272.999903962167
272.9999065829047
272.9999100431772
272.9999145407281
272.9999201926501
272.9999269057898
272.999934218096
272.9999411522924
272.9999473185044
272.9999551730662
272.9999720477256
273.0000117444222
273.0001019991891
273.0002890018264
273.0006284312804
273.0012243109668
273.0023667987244
273.0053125749823
273.0196800201097
272.9999600570118
272.9999646193289
272.9999711562452
272.9999798128492
272.9999907615112
273.000004369187
273.0000212203247
273.0000419263786
273.0000668173334
273.0000955243643
273.0001264798909
273.0001564493907
273.0001829441884
273.0002076167228
273.0002363392244
273.0002785737243
273.0003652358481
273.0005726365139
273.0009511548524
273.0015880592824
273.0027308407604
273.0055079812259
273.018938806625
273.0001841761747
273.0001991139282
273.0002200704247
273.0002471583994
273.0002809655711
273.0003225536581
273.0003736069052
273.0004359413168
273.0005106723611
273.0005971565178
273.0006917718742
273.0007868640671
273.0008759191267
273.0009583646357
273.0010313854396
273.0010796115593
273.0011046969991
273.0012616917246
273.0015934130094
273.002175424757
273.0032217220147
273.0057324263398
273.0180315963525
273.000741248879
273.0007781340628
273.0008297507097
273.0008959110708
273.0009781573146
273.0010791560898
273.0012031823114
273.0013549604767
273.0015377205153
273.001750938411
273.0019878710286
273.0022338421124
273.0024767417082
273.0027158960422
273.0029326691523
273.0030468341064
273.002937739465
273.0029071547557
273.0029911125789
273.0032862565924
273.0040136112095
273.0060685281872
273.0169816384363
273.0018876530372
273.0019648232077
273.0020719989102
273.0022097175728
273.002380927761
273.0025914018029
273.0028507214895
273.0031695280559
273.0035554520161
273.0040088749326
273.0045185622294
273.0050598350281
273.0056138751739
273.0061946851673
273.0067830777161
273.007177484285
273.0069928767226
273.0065621496253
273.006018762109
273.0055590211602
273.0055041614458
273.0067188906614
273.0158679812076
345.9832714764996
345.9832843890989
345.9832678695433
345.9833383326607
345.9834556132141
345.9836064663575
345.9837936787005
345.9839969144697
345.9841987091851
345.984387368073
345.9845532812042
345.9846942640002
345.9848096138402
345.9848999720989
345.9849678912964
345.985014173703
345.9850385637692
345.9850465108742
345.9850667010537
345.9832419530661
345.9832675157988
345.9832225296818
345.9832780151511
345.9833156437668
345.9832650907062
345.9834849163921
345.9838425260917
345.9841060736181
345.9843125613772
345.9844824734192
345.9846261826612
345.9847438554863
345.9848363030925
345.9849059504651
345.9849531965501
345.9849775035104
345.9849856604694
345.985017411394
345.9832202356943
345.9832556989102
345.9831548730579
345.9830469352636
345.9819837693228
345.979350497861
345.9801739523559
345.9825957388761
345.9837387997032
345.9842009893137
345.9844225587568
345.9845731793819
345.9846900892582
345.9847805408166
345.9848478728652
345.9848925178665
345.984914259303
345.9849215589933
345.9849587645335
345.9832478567849
345.9814352893844
345.9827629068147
345.9807577076946
345.9692222774939
345.9451915532171
345.9523080897849
345.9715936108699
345.9805815068769
345.9835204214334
345.9842825202008
345.984516557371
345.9846392396495
345.9847257928223
345.9847882403149
345.9848282730365
345.9848461314609
345.9848520912644
345.9848931888379
345.9807846490361
345.8868024563433
345.9794761497465
345.961408785644
345.8802274082568
345.7349207721097
345.7879488726969
345.9003833697419
345.9583964261963
345.9785042548079
345.9834121792132
345.9843709613344
345.9845826408346
345.9846721101308
345.9847282032807
345.9847617375617
345.984774445902
345.9847783998531
345.9848232951921
345.7243608811359
343.8472156882493
345.9454880683654
345.8329061952528
345.4139602167588
344.7938625152585
345.0854099192122
345.5584483149344
345.8397912692931
345.9487359504332
345.9778468547134
345.9835567458641
345.9844474112051
345.9846081548341
345.98466326324
345.9846892417428
345.9846955211678
345.9846967755039
345.9847469482457
351.5717104260398
326.1509374477126
345.8235240608304
345.1076020077399
343.4803215742011
341.6825189319516
342.8456251734552
344.3156194638242
345.3495220724649
345.809079129958
345.9485301705506
345.9789395376566
345.9838217192717
345.9844938000944
345.9845945758444
345.9846138086845
345.9846112412445
345.9846085029125
345.9846573576402
276.660328065471
277.4879371828076
320.4596996484414
340.5064556107228
336.6940648376992
333.9795197682867
337.3550496417362
340.8592693665516
343.7641852592548
345.2851536895911
345.8222096132537
345.9565899045721
345.9805858397023
345.9840715645594
345.9845163136393
345.9845567979114
345.9845450110798
345.9845346603503
345.9845795508808
273.0039633490154
273.0041071393436
273.0043017838367
273.0045559424589
273.0048725265922
273.0052626986239
273.005745739973
273.0063425315981
273.0070679429053
273.0079235146646
273.0088902412866
273.0099283021092
273.011008346853
273.0122046875939
273.0136127164693
273.0148853891659
273.0153334693676
273.0146686911253
273.0137712681467
273.0126197019342
273.0113322435373
273.0105085870704
273.0144874210355
273.010307217117
273.0106215373408
273.0110584056599
273.0116326734556
273.0123503372168
273.0132391653713
273.0143459806353
273.0157182419089
273.0173855447389
273.0193412226322
273.0215260861867
273.0238373479476
273.0261805072456
273.0288908363026
273.0328543986439
273.0373168258749
273.0402442786074
273.0390913105672
273.0364451595822
273.0324944546202
273.0277630950205
273.0232076289216
273.0213217062549
273.0220004995634
273.0225485892625
273.0233623752046
273.0244424107144
273.0257976027734
273.0274875403121
273.0296041167082
273.0322296862341
273.0353941134279
273.0390210538316
273.0429089622224
273.0467973247137
273.05040643526
273.0547967392279
273.0637643443715
273.0762746021547
273.0876727380349
273.0907761576095
273.0845060796109
273.0754500144678
273.0651037296404
273.0546705240152
273.0457102656453
273.0403796490378
273.0411768742954
273.0424734747778
273.0442203487762
273.0464214312181
273.0492002983174
273.0527278328892
273.057112475906
273.0622436545575
273.067727917807
273.073054506911
273.0778862718064
273.0816702430484
273.0864208041821
273.1020498834514
273.1297647874464
273.1723185714271
273.1943835068447
273.1805025379344
273.1575431540132
273.1346931866699
273.1140537308802
273.0962382875381
273.065520596517
273.066538621466
273.0682897553397
273.0707486776786
273.073882162365
273.0780299641341
273.0837537630843
273.0906512916443
273.0973822771814
273.1031964000917
273.1081213041832
273.1132400535117
273.1164682417589
273.1164867977144
273.1366283016193
273.1948363151629
273.4479702205966
273.7257268882847
273.687801119806
273.4251083363462
273.2690295515962
273.1902914022605
273.1515863185895
273.0951218999826
273.0963840946679
273.0983138418697
273.1014639525533
273.1058695016196
273.1129035381293
273.1262326039186
273.1349695235737
273.1392092391495
273.1463477942733
273.1631748865951
273.2124701529503
273.4588993645964
274.6878478753712
275.9175917077274
283.6079117888528
297.5030506337595
302.8262294195763
304.2017702840581
300.2592360103815
294.9309057511618
279.9116190588661
273.7843730998396
273.1351047499516
273.1380237546432
273.1437948220988
273.1552576905182
273.1777195802451
273.2284509451074
273.3995465452566
275.1242572146646
279.1869225843908
283.491158246219
287.4811843210269
290.3634078742327
288.7503489589516
287.9444587927957
293.9509014186651
299.4603288131016
302.9301707097283
305.395121425624
307.9326766574305
309.7124908813065
307.385205736026
301.0266576486116
296.8962907411383
285.4516564661421
286.0289091679857
287.6345226615614
289.3246614718599
291.8531409126691
295.0248577340917
298.7150081745593
302.8180663217192
306.7610427294784
310.0844611381129
312.1581529978855
312.4052722355767
308.2348743232611
305.1407381959806
304.9581818494323
305.998565156945
307.8223227391302
311.9728548673751
318.4358499271488
324.6697875082849
327.4945897385938
326.8203366083573
325.1351213155512
308.7509419131651
310.1602415090665
311.483294403342
313.3883037694688
315.9370915981161
319.0309643050754
322.3068967352677
325.3072174596834
327.6927340814779
329.20029672481
329.509626953122
328.5355256500045
325.7704383340866
322.3216361329208
319.2147572468431
317.5870047115148
319.6087952264641
325.8365899033023
332.7235006519595
337.1493098434804
338.8766386995273
338.9955253849777
338.1193813679926
326.6233459147545
327.9308637522931
329.2243767239232
330.7283095395928
332.6317902009541
334.7401344680773
336.7021890718673
338.1979759837401
338.9992417836021
339.0297608728897
338.2479884832649
336.8991217762713
334.840944646248
332.0132479245519
328.339695615851
325.6808370405483
327.0980721751187
332.4089295901942
337.8335066750457
340.693252057967
341.2225886703947
340.6500399840642
339.5454992035879
337.6362425325504
338.7124355881569
339.4932601145085
340.4174992578793
341.4850304787681
342.5237677025196
343.2892388684197
343.5579089945057
343.1837382126171
342.1586469182392
340.5931120061015
339.0133718051403
336.6901094249176
333.1678595520798
329.2508981130177
327.9991072302788
331.2548420350178
337.0121313148595
341.1271266542684
342.6464725345918
342.7114571853049
342.3856757966376
341.9372323279181
343.2884617765126
343.8264185758482
344.2238034072186
344.6154690814519
345.0237622475453
345.321024024806
345.3204767632545
344.8314737207808
343.7223042920533
342.0293543402948
339.9851168613948
338.1037178276924
334.8998656640131
330.9582772705045
328.8275690575155
331.0313774883535
336.897523473616
341.8396472141657
343.8804531932194
344.2506464916754
344.1739422371336
344.0919573995632
343.8710253406432
345.4995899273384
345.6886788878834
345.7976501229481
345.8983413057825
345.9617547108427
345.8901918939772
345.5156909288075
344.6366492263815
343.1449731356287
341.2059086279276
338.9867779415879
336.8123426216202
333.1243664433194
330.4877903266242
332.3458107659731
338.4168829308559
343.3360538220626
345.0238732225958
345.2262542571463
345.1496388188327
345.1121634965537
345.0479893994606
344.6945348814763
346.0801343179232
346.0950914127606
346.0973351916061
346.0829412922008
346.0215257694882
345.8233084311888
345.306550917583
344.2758512248915
342.7099751461235
340.8597031278405
338.8836291071054
336.9245088482622
334.4132727789564
335.2637880922618
341.5451819315772
345.5166930295591
345.8645551908969
345.7238406849662
345.6240053254487
345.5965547405842
345.5752155075963
345.4283552204515
344.940462867327
346.0890874817362
346.0688074722743
346.0507905587745
346.0181650305354
345.9394633383145
345.7190694898591
345.1794543080531
344.1841823543313
342.8326427853636
341.4555657358734
340.2876116681149
339.5265119910753
339.9708601640735
343.6260936076313
347.1156735667848
345.9946793116026
345.8145164871684
345.8367243598898
345.823251340964
345.8164052787041
345.7676216211816
345.5729095306975
345.0349995340941
346.0114105042588
345.997623518093
345.9867098268857
345.9654992069633
345.899560824546
345.6957983073753
345.2192922060681
344.4380916102238
343.5639217299295
342.9438060129198
342.8287967082692
343.4306041252311
344.8803801723093
346.1249079787784
346.0164581911869
345.9227471489477
345.9143910577179
345.9290546792606
345.9184293900091
345.9059019743111
345.8473233927177
345.6546949493102
345.1324152776114
345.9701510678642
345.9674716690699
345.9653420619395
345.9554282088818
345.908319173359
345.7576516823428
345.4343495338786
344.9707707894898
344.5656969587423
344.4693529257232
344.7766760349807
345.3380776575556
345.8250043029681
346.0145406505201
346.032241605869
345.9506874452148
345.953811485368
345.9616728664843
345.9539223951871
345.9408756513326
345.8891612081193
345.7255897421778
345.274587462013
345.9654317140453
345.9674195812585
345.9685904567516
345.9650049051748
345.9400665399663
345.860078508122
345.6955700822739
345.4736876092325
345.3064722219835
345.3190413352191
345.5220390075833
345.788218222054
345.9754566388816
346.0300325850139
345.9897026191505
345.9628897711082
345.9690181169451
345.9721418480029
345.9670546952032
345.9580730014271
345.9227654790544
345.809197062487
345.4858808453415
345.9726700152453
345.9740730747101
345.9748966698177
345.9742763830805
345.9667282656827
345.9398341110485
345.8790441519234
345.7888971928678
345.7131646083313
345.7131441194712
345.8054262609746
345.9310578839404
346.0073540993986
346.008136975826
345.978855916097
345.9680897165991
345.974104168344
345.9748515278305
345.9720672913001
345.967726258381
345.9496617648463
345.8897027429016
345.7115574857521
345.9766692493316
345.9766847722221
345.9767432270435
345.977099590478
345.9777950517774
345.976410533679
345.966593656195
345.9442178373766
345.9193839107997
345.9158232964845
345.945822890591
345.9877486154113
346.0054251630261
345.9917838383602
345.9737557104696
345.9713091058989
345.9755046745068
345.9752838476147
345.9738890308186
345.9723366452501
345.9651142495273
345.9407525145642
345.8656502384646
345.9760379081534
345.975765142145
345.9756718318516
345.9760669106915
345.9780475233003
345.982545812967
345.9886368674824
345.9929866539852
345.9931538220535
345.9917399945093
345.9934864350772
345.996496429205
345.9926681241515
345.9812620861975
345.9728944246184
345.9732875183007
345.9756755963784
345.975173808368
345.9744820052462
345.9740719780402
345.9717000652675
345.9638211277909
345.9385138301954
345.9746734856876
345.9746826231448
345.9747463650351
345.9749550044357
345.9757816691115
345.9781477318315
345.9828754240236
345.9893813556876
345.9950858306779
345.9971222750893
345.9947539825369
345.9892848817802
345.9823596375222
345.9761696040956
345.97353524384
345.9744718205962
345.9754711918172
345.9750056203859
345.9746438354695
345.9745289108326
345.9737905432758
345.9716650548812
345.964773085418
345.9745740575835
345.974696559806
345.9748044552427
345.9748859618661
345.9749642769332
345.9752577518792
345.9762451399656
345.9783380682042
345.9811606970479
345.9832642949939
345.983094625188
345.9805029210024
345.9770623172909
345.9747595301093
345.9743799229918
345.9750048467067
345.9752282742982
345.9748855597072
345.9746748917154
345.9745764380393
345.9742862419089
345.973727310958
345.9720871534801
345.9749123126127
345.9749576300193
345.9750083909369
345.9750312103789
345.9750171950076
345.9749717558479
345.9749455459801
345.9750652820618
345.9754471355589
345.9759794315665
345.9762658892544
345.9759854036628
345.9753341497096
345.9748888105943
345.9749269791759
345.9751150121045
345.975051286789
345.9748179438
345.9746608375787
345.9745315715148
345.9743518043178
345.9741433766715
345.9737360675937
345.9748220160979
345.9748396487597
345.9748749576161
345.9748910870333
345.974893706809
345.9748914697961
345.9748835977284
345.9748695107548
345.9748698613907
345.9749182198423
345.9750125254615
345.9750970597696
345.9751261110741
345.9751213107485
345.9751146275364
345.9750695774898
345.9749424353369
345.9747760695427
345.9746267951174
345.974479658292
345.9743270391496
345.9741856559992
345.9740263654173
345.9746463088647
345.9746843758465
345.9747346368848
345.9747764532171
345.9748101249081
345.9748486131681
345.9749019641753
345.9749648667506
345.9750234386229
345.9750712578733
345.9751129116981
345.9751498834756
345.9751693497715
345.9751532907292
345.9750947669107
345.9749990481198
345.974875107344
345.9747336466751
345.9745848461667
345.9744342319714
345.9742900451249
345.9741618269708
345.9740496136588
345.9746605029394
345.9746822628367
345.9747195770048
345.9747498424596
345.974770142346
345.9747877941924
345.9748168724678
345.9748677712896
345.9749376657786
345.9750112442121
345.9750706024352
345.9751039605801
345.9751065387346
345.975077190883
345.9750166965317
345.9749278159226
345.9748146640505
345.9746822697309
345.9745377944242
345.9743911342737
345.9742528202788
345.9741302107865
345.9740289268077
345.9745763224556
345.974593099773
345.9746247035029
345.9746525828721
345.9746730238511
345.9746905782879
345.9747150353178
345.9747543260705
345.9748094065758
345.9748732368616
345.9749332059232
345.9749757555888
345.9749908407393
345.9749739213765
345.9749251318732
345.9748471954927
345.9747438410985
345.9746199784412
345.9744832623758
345.9743443448946
345.9742136780016
345.9740975190892
345.9740015733152
345.9745200335903
345.9745303642132
345.9745548450331
345.9745780958621
345.9745955423897
345.9746085902469
345.9746247391413
345.9746523293517
345.9746947375314
345.9747479435396
345.9748020415158
345.9748448648348
345.974865734069
345.9748579780234
345.9748195634215
345.974751992108
345.9746586965985
345.9745446866531
345.9744177423966
345.9742886129097
345.9741676471935
345.9740602133345
345.9739703569316
345.9744569349558
345.9744617966902
345.9744795192015
345.9744974889426
345.9745111431689
345.9745201364249
345.9745297722263
345.9745475415162
345.9745781551846
345.9746203929289
345.9746670975239
345.9747076161299
345.9747312367095
345.9747300763879
345.9747004714927
345.9746426392711
345.9745594373002
345.9744557535282
345.9743392616521
345.9742206129982
345.9741102591995
345.9740131674105
345.9739314354482
345.9743933366057
345.9743937859487
345.9744056473167
345.9744185633146
345.9744281836765
345.9744328644363
345.9744360704715
345.9744443491384
345.9744631842451
345.9744935846836
345.9745309958159
345.9745666546175
345.9745903989099
345.9745936209848
345.9745712312723
345.9745220891974
345.9744482757481
345.9743544143864
345.9742479777371
345.9741393867535
345.9740393033003
345.9739530357173
345.9738812454496
345.9743282317916
345.9743255127148
345.9743326966853
345.9743412120587
345.9743469862269
345.9743475652094
345.9743449478909
345.9743446506684
345.97435244511
345.9743710035952
345.9743981039186
345.9744270106732
345.9744485610942
345.9744539180856
345.9744368670446
345.9743949153406
345.9743292002462
345.9742439167521
345.9741462266156
345.9740462007924
345.9739547177533
345.9738780306108
345.9738166263215
345.9742616155844
345.974256967642
345.9742608852879
345.9742660403799
345.9742686094693
345.9742656310133
345.9742579791995
345.9742502092831
345.9742480867926
345.974255476002
345.9742721112723
345.9742931897097
345.9743107418311
345.9743160857783
345.9743022608177
345.9742656247142
345.9742063109322
345.9741279160831
345.9740371770724
345.9739437371495
345.9738585936416
345.973789268095
345.9737372533065
345.9741933700507
345.974188052312
345.9741901118886
345.9741931210314
345.9741933859837
345.9741876307954
345.9741758795328
345.9741618432969
345.974151117459
345.9741483952358
345.9741550142634
345.9741679135568
345.9741803675961
345.9741840794792
345.9741716614928
345.9741385640797
345.9740839511438
345.9740106541166
345.9739248509958
345.9738357435998
345.9737543472114
345.97368941596
345.9736443123805
345.9741235237805
345.9741186173294
345.9741201256674
345.9741221708327
345.9741210979661
345.9741134132947
345.9740985214929
345.9740794079166
345.9740614073424
345.9740497561345
345.9740470684181
345.9740518212768
345.9740585381871
345.9740594744689
345.9740470366312
345.9740159234785
345.9739643738627
345.9738944236015
345.9738116537943
345.9737248024156
345.9736447799672
345.9735813664715
345.9735401806128
345.9740520879461
345.9740485289383
345.9740505209069
345.97405259609
345.9740510262677
345.974042173607
345.9740249858058
345.974001869296
345.9739778700441
345.9739585744114
345.9739475779181
345.9739446665641
345.9739455157734
345.9739430039183
345.973929501655
345.973899139338
345.9738493222906
345.9737812642524
345.9736999123674
345.9736135428835
345.9735329106048
345.9734685328069
345.9734280551778
345.9739792120297
345.9739776328331
345.9739808099632
345.9739835628758
345.9739820517194
345.9739725416721
345.9739536621613
345.9739273717709
345.9738984647862
345.9738727320577
345.9738544989157
345.9738445900713
345.973839663725
345.9738332143168
345.9738177008325
345.9737868870628
345.9737375195492
345.9736700894617
345.9735889031107
345.9735017609829
345.9734191852315
345.9733521041163
345.9733098257329
345.9739050280086
345.9739057607162
345.9739103836056
345.9739140331079
345.9739127445512
345.9739027340653
345.9738824333618
345.9738534968546
345.9738205140963
345.9737894067437
345.9737650147945
345.9737489395277
345.9737386135389
345.9737280489187
345.9737098622191
345.9736776270152
345.9736276463187
345.9735598370718
345.9734779305064
345.9733892566145
345.9733040549605
345.973233409793
345.9731876049238
345.9738298230995
345.9738326805685
345.9738384877189
345.9738426998406
345.9738413015685
345.9738305257354
345.9738087250574
345.9737773742714
345.9737409288738
345.9737053791077
345.9736758858876
345.9736545359002
345.9736392452988
345.9736243788528
345.9736027189836
345.9735678498905
345.973515970994
345.9734467551041
345.9733635512345
345.9732732025598
345.9731855116667
345.9731113415082
345.9730613779148
345.9737538674119
345.9737579139521
345.9737639347285
345.9737677497055
345.9737653501693
345.9737531352445
345.9737295160214
345.9736958940213
345.9736566201516
345.9736176364046
345.9735841733361
345.9735584744605
345.9735386472314
345.9735192292753
345.973493191286
345.9734543607044
345.9733991924722
345.9733275328639
345.9732426470357
345.9731509770406
345.9730616964375
345.9729850707149
345.9729315480251
345.973675271686
345.9736796444541
345.9736842054648
345.9736857623821
345.9736807580265
345.9736661005633
345.9736405027792
345.9736053544802
345.9735646763039
345.9735238908969
345.9734877070528
345.973458023112
345.9734329134721
345.9734072555221
345.9733746838769
345.9733298830523
345.9732701729329
345.9731959845653
345.9731106095866
345.9730197945255
345.9729314427946
345.9728544880853
345.9727986972613
345.9735874583203
345.9735904163794
345.9735905165386
345.9735865623377
345.9735763161793
345.9735580971401
345.9735314799777
345.9734977233189
345.9734595795318
345.9734203430944
345.9733824813238
345.9733465235997
345.9733107823723
345.9732721030829
345.9732272190244
345.9731739532274
345.9731117106429
345.9730412572732
345.9729643339683
345.9728836327399
345.9728033434147
345.9727293190577
345.972670141325
273.0155447278189
273.0167313088086
273.0182132376048
273.0201681224399
273.0211757905728
273.021477945922
273.0220879562341
273.0229765078378
273.0427215326578
273.0407675652185
273.039519109097
273.0387561222032
273.0894951394584
273.0840304695226
273.0796104719673
273.0759643606027
273.140174930178
273.1317199921808
273.1252628676951
273.1201559261993
273.4515123521414
273.3078003082123
273.2348729777436
273.1959529595957
295.5414661749775
294.6596474600355
293.8628556001352
293.6301920351766
324.4757092108191
323.9345336464821
323.2014987179323
322.5038376374026
337.6438900755396
337.1388008357874
336.5330021003288
336.0655384096777
339.0318578653236
338.5371866691597
337.9829164924449
337.5089196906287
341.7269004085476
341.4930151225637
341.1344927576046
340.7982686262364
343.6884403552146
343.3558256939938
342.7550423634824
342.0530138914112
344.2987212399249
343.6011168049907
342.5110084826567
341.1182512935247
344.2464512649824
343.1737673559774
341.6575597824396
339.5714116281594
344.058620818228
342.7759508417678
341.0070526827555
338.5189417434667
344.018814208683
342.7416618416583
340.9283712501744
338.4219232777683
344.2546121871778
343.127090474823
341.4876353507067
339.2322922226178
344.7299558227994
343.8676024229216
342.5851599814839
340.7663930243306
345.2757884911692
344.7578968364073
343.9596729180517
342.7822572999905
345.673781303771
345.4372405333418
345.0607429990937
344.4852202522587
345.8701689360831
345.7817709874039
345.6357631227318
345.4048334561636
345.9453270395499
345.918977476504
345.8735215160181
345.7982512819103
345.9674097778985
345.9608614759354
345.9491316090327
345.9288640954256
345.9727055807306
345.9712851879084
345.9686896759113
345.9640500715904
345.9737580226757
345.9734435082267
345.9728980850273
345.9719236260872
345.9739287516057
345.9738229591889
345.9736746083468
345.9734359113561
345.9739414552778
345.9738742103974
345.973797113324
345.9736911080903
345.9739266248076
345.9738693047543
345.9738079804482
345.9737281322404
345.9739036783052
345.9738510209493
345.9737964831619
345.9737258774586
345.9738726491756
345.9738233854407
345.9737739319144
345.9737097553726
345.9738313867327
345.9737850451715
345.9737399326461
345.9736813577979
345.9737770575019
345.973733863183
345.9736926826541
345.9736391037941
345.9737085408374
345.973668849015
345.9736312347655
345.973581973083
345.9736256377087
345.9735897595016
345.9735554139738
345.9735097939623
345.9735296531398
345.9734976660039
345.9734663197694
345.9734236851306
345.9734226058296
345.9733940133024
345.9733652628736
345.9733250855161
345.9733065380972
345.9732807592284
345.9732542704057
345.9732161251957
345.973183643078
345.9731596415202
345.973134829661
345.9730983326114
345.9730550137459
345.9730320562233
345.9730084682667
345.9729732147756
345.9729221527964
345.9728994643908
345.9728764767499
345.9728419590405
345.9727861637352
345.9727629210832
345.9727394924742
345.9727045290911
345.9726509230932
345.9726237694249
345.9725961524939
345.9725570894324
273.0276728161547
273.0872423668928
275.7810429052597
279.8852834889013
296.4038000846339
318.2551357709935
326.0221936257497
333.0312896448539
339.5154208326931
343.6194207758613
345.3479548908109
345.8591318585248
345.9641353454707
345.9816555970731
345.9841643680528
345.9844287926633
345.9844158199065
345.9843884584354
345.9844210634257
273.0269505766144
273.0439099767702
273.1043221161609
273.1332136749915
273.398578578314
274.3673244549997
293.1530935482739
309.0818144761702
323.9973123100898
336.1268805988032
342.7110457979072
345.1854601648569
345.8241473449517
345.9576257560357
345.980783853654
345.9839783032261
345.9842702593467
345.9842532123911
345.9842774317601
273.0389116071857
273.0438967934227
273.0606022399654
273.0832109488559
273.1062509930102
273.1211623096392
273.1839799934835
274.8709532411559
296.6388369374818
318.3122243602572
334.3522093303309
342.3226790205256
345.0575833703745
345.796535752768
345.9541578585775
345.9804979330721
345.9837927788171
345.984042165738
345.9840728910375
273.0702935006562
273.067950085144
273.0707672687319
273.0794999316288
273.0934651360872
273.1104250840502
273.1269942745301
273.1432302052941
273.3847576153771
294.0944573555531
318.1167955371916
334.5625046996013
342.328270392804
345.0736081628432
345.8085731825195
345.9584080978336
345.9812076487159
345.9836232168096
345.9837967956905
273.110843348648
273.1036724121203
273.099262708927
273.0987625069697
273.103194752117
273.1129392020709
273.1272266854233
273.1444929538446
273.16627863108
273.3144530280441
293.4152757513309
320.0257757353209
335.8012701997175
342.8848779557375
345.2686112368149
345.861251531875
345.9687347278365
345.982325711816
345.9834139820192
273.154504880577
273.1369074555155
273.1248375547861
273.1196663119858
273.1186212203178
273.1222485761257
273.131459835244
273.1464416760306
273.1663533327891
273.1922450757249
273.476948322279
298.4571681985681
322.5418307543314
337.1762460544945
343.5221163443326
345.4835399184884
345.9124141267801
345.9767156441281
345.9827486768684
291.5759160270022
279.3533652865555
273.9219652071211
273.3586277456935
273.1892185172412
273.1590097980051
273.1546149834905
273.1600833410163
273.1753265273716
273.1989846876733
273.2374806213278
274.7749011464832
306.3202242841637
328.6067499076856
340.3125463496673
344.6542976230293
345.7684312883097
345.9608801536491
345.9814360059678
317.6716642993071
311.6482158594808
307.8234930595362
299.7352617844783
284.7933201718194
273.7374748395663
273.2207320557916
273.1990013326995
273.2004960469784
273.2178293726719
273.2538699283798
273.3763958180208
295.1090299103378
319.9221947808529
336.2904081625989
343.4269456427467
345.5228959474214
345.9305632044041
345.9791005474016
333.5845354691619
329.4406835578669
324.6696161962195