/*--------------------------------*- C++ -*----------------------------------*\
| =========                 |                                                 |
| \\      /  F ield         | OpenFOAM: The Open Source CFD Toolbox           |
|  \\    /   O peration     | Version:  2206                                  |
|   \\  /    A nd           | Website:  www.openfoam.com                      |
|    \\/     M anipulation  |                                                 |
\*---------------------------------------------------------------------------*/
FoamFile
{
    version     2.0;
    format      ascii;
    arch        "LSB;label=32;scalar=64";
    class       volScalarField;
    location    "0.3";
    object      T.water;
}
// * * * * * * * * * * * * * * * * * * * * * * * * * * * * * * * * * * * * * //

dimensions      [0 0 0 1 0 0 0];

internalField   nonuniform List<scalar> 
2268
(
272.9999671223026
272.9999663025309
272.999965858839
272.999965282945
272.999964597496
272.9999638637225
272.9999631124844
272.9999623682091
272.9999616654017
272.9999610529171
272.9999605955777
272.9999603771973
272.9999606005914
272.9999619593946
272.9999664432696
272.9999787114035
273.0000083433359
273.0000775593222
273.0002377349784
273.0006178518396
273.0016043610945
273.0047524043476
273.0209097577736
272.9999340657957
272.9999330673562
272.9999324047012
272.9999315328074
272.9999305011352
272.9999293864796
272.9999282327436
272.9999270822299
272.9999259908578
272.9999250285888
272.9999242773051
272.9999238322256
272.9999240249446
272.9999261404621
272.9999336853295
272.9999540332989
273.0000009197368
273.0001018758147
273.0003122446765
273.0007582611964
273.0018034633237
273.004923323397
273.0206552642213
272.9999055294738
272.9999047155159
272.9999041853457
272.9999035444214
272.9999028504456
272.9999021877616
272.9999016307887
272.9999012576749
272.9999011426468
272.9999013294432
272.9999017974518
272.999902435196
272.999903539647
272.9999071495984
272.9999188959811
272.9999498595982
273.0000200432513
273.0001638739016
273.0004384630994
273.000961378875
273.0020630602842
273.0051179386796
273.0202515802872
272.9998990723118
272.9998995240144
272.9999005333131
272.9999019905306
272.9999039621523
272.9999065828868
272.9999100431581
272.9999145407063
272.9999201926263
272.9999269057635
272.999934218068
272.9999411522632
272.9999473184761
272.9999551730439
272.9999720477171
273.0000117444418
273.0001019992549
273.0002890019694
273.0006284315447
273.0012243114168
273.0023667994768
273.005312576349
273.0196800232487
272.9999600569538
272.999964619269
272.9999711561816
272.9999798127811
272.9999907614389
273.0000043691088
273.0000212202407
273.000041926288
273.0000668172366
273.0000955242607
273.0001264797829
273.00015644928
273.0001829440823
273.0002076166302
273.0002363391642
273.0002785737192
273.000365235919
273.0005726366956
273.0009511551892
273.0015880598318
273.0027308416221
273.0055079826684
273.0189388097311
273.0001841759968
273.0001991137436
273.0002200702309
273.0002471581953
273.0002809653552
273.0003225534289
273.0003736066616
273.0004359410578
273.0005106720857
273.0005971562274
273.0006917715729
273.0007868637612
273.00087591883
273.0009583643728
273.0010313852437
273.0010796114719
273.00110469704
273.0012616919303
273.0015934134177
273.002175425412
273.0032217229908
273.005732427857
273.0180315994045
273.0007412484443
273.0007781336137
273.0008297502425
273.0008959105819
273.0009781568008
273.0010791555492
273.0012031817398
273.0013549598727
273.0015377198781
273.0017509377435
273.0019878703389
273.0022338414152
273.0024767410322
273.0027158954377
273.0029326686839
273.0030468338385
273.002937739428
273.0029071549617
273.0029911130449
273.0032862573473
273.0040136122981
273.0060685297764
273.0169816414125
273.0018876521304
273.0019648222748
273.002071997944
273.0022097165674
273.0023809267112
273.0025914007032
273.0028507203343
273.0031695268418
273.0035554507417
273.0040088736048
273.0045185608627
273.0050598336528
273.0056138738482
273.0061946839872
273.006783076791
273.0071774837099
273.0069928766031
273.0065621497988
273.0060187626053
273.0055590219964
273.0055041626383
273.0067188923194
273.0158679840821
345.9832714765051
345.9832843891048
345.9832678695492
345.983338332667
345.9834556132193
345.9836064663633
345.9837936787061
345.9839969144757
345.9841987091911
345.9843873680784
345.9845532812097
345.9846942640055
345.9848096138452
345.9848999721052
345.9849678913023
345.9850141737091
345.9850385637752
345.9850465108804
345.9850667010592
345.9832419530721
345.9832675158048
345.9832225296879
345.9832780151569
345.9833156437725
345.9832650907121
345.9834849163982
345.9838425260972
345.9841060736239
345.9843125613824
345.9844824734254
345.9846261826661
345.984743855492
345.9848363030976
345.9849059504704
345.984953196556
345.984977503516
345.9849856604756
345.9850174113994
345.9832202357003
345.9832556989165
345.9831548730633
345.9830469352693
345.9819837693281
345.9793504978666
345.9801739523621
345.982595738882
345.9837387997093
345.9842009893189
345.9844225587618
345.9845731793876
345.9846900892641
345.9847805408223
345.9848478728703
345.9848925178719
345.9849142593088
345.9849215589988
345.9849587645385
345.9832478567907
345.9814352893902
345.9827629068203
345.9807577077003
345.9692222774994
345.9451915532238
345.9523080897916
345.9715936108758
345.9805815068829
345.9835204214395
345.9842825202065
345.9845165573766
345.9846392396545
345.9847257928275
345.9847882403206
345.9848282730422
345.9848461314664
345.9848520912699
345.9848931888432
345.9807846490423
345.8868024563603
345.9794761497529
345.9614087856493
345.8802274082631
345.7349207721226
345.7879488727096
345.900383369751
345.9583964262033
345.9785042548136
345.9834121792189
345.9843709613399
345.9845826408402
345.984672110137
345.9847282032867
345.9847617375667
345.9847744459073
345.984778399859
345.9848232951975
345.7243608811558
343.8472156890517
345.9454880683728
345.8329061952597
345.4139602167691
344.7938625153152
345.085409919265
345.5584483149622
345.8397912693053
345.94873595044
345.9778468547198
345.9835567458696
345.9844474112107
345.9846081548399
345.9846632632457
345.9846892417484
345.9846955211734
345.9846967755098
345.9847469482514
351.571710426071
326.1509374561215
345.823524060856
345.1076020077531
343.4803215742253
341.6825189322827
342.8456251737209
344.3156194639674
345.3495220725129
345.8090791299732
345.9485301705583
345.9789395376627
345.9838217192777
345.9844938000996
345.9845945758501
345.9846138086896
345.9846112412497
345.984608502918
345.9846573576457
276.6603280654697
277.4879371781721
320.459699652744
340.5064557399471
336.6940648378442
333.9795197695054
337.3550496426975
340.8592693671928
343.7641852595059
345.2851536896499
345.8222096132689
345.9565899045788
345.9805858397083
345.9840715645652
345.9845163136449
345.9845567979166
345.9845450110848
345.9845346603562
345.9845795508869
273.0039633473428
273.0041071376271
273.004301782067
273.0045559406257
273.0048725246863
273.0052626966359
273.0057457378939
273.0063425294217
273.0070679406317
273.0079235123065
273.0088902388759
273.009928299702
273.0110083445541
273.0122046855777
273.0136127149109
273.0148853881516
273.0153334689446
273.0146686910807
273.0137712685293
273.0126197027714
273.0113322448237
273.010508588808
273.0144874235957
273.0103072133018
273.0106215334462
273.0110584016631
273.0116326693392
273.0123503329597
273.013239160955
273.0143459760419
273.0157182371302
273.0173855397832
273.0193412175446
273.0215260810603
273.023837342927
273.0261805025603
273.0288908323769
273.0328543959687
273.0373168242836
273.0402442776684
273.0390913105211
273.0364451600189
273.0324944555093
273.0277630963516
273.0232076306742
273.0213217085648
273.0220004922934
273.022548581885
273.023362367676
273.0244424029994
273.0257975948409
273.0274875321241
273.029604108227
273.0322296774416
273.035394104384
273.0390210447154
273.0429089532923
273.0467973162159
273.0504064275055
273.0547967333151
273.063764342434
273.0762746030901
273.0876727385073
273.0907761564798
273.0845060775053
273.0754500130123
273.0651037293004
273.0546705246581
273.0457102670654
273.0403796371727
273.0411768623139
273.0424734626519
273.0442203364356
273.0464214186132
273.0492002853328
273.0527278192549
273.0571124616548
273.0622436403262
273.0677279042541
273.0730544942674
273.0778862596561
273.0816702315658
273.0864207977155
273.1020498879651
273.1297647996639
273.1723185824036
273.1943835034643
273.1805025254147
273.1575431396395
273.1346931760768
273.1140537244598
273.0962382841429
273.0655205801997
273.0665386050113
273.0682897389054
273.0707486610429
273.0738821452484
273.0780299457222
273.0837537406408
273.0906512693907
273.097382259993
273.1031963860256
273.1081212899174
273.1132400336832
273.1164682244653
273.1164867963295
273.1366283133025
273.194836338227
273.4479702359071
273.725726731197
273.6878011197998
273.425108336343
273.2690293764658
273.1902913399899
273.151586293379
273.0951218832154
273.0963840775072
273.0983138240381
273.1014639331389
273.1058694782023
273.1129035045498
273.1262325305607
273.1349694972656
273.1392092309957
273.1463477679575
273.163174806106
273.2124697803921
273.4588993645631
274.6878478747899
275.9175917075679
283.6079117887348
297.5030506337163
302.8262294195729
304.2017702838693
300.2592360094792
294.9309057498262
279.9116190573008
273.7843730998226
273.1351046932695
273.1380236918095
273.1437947354426
273.1552575564031
273.1777193126383
273.2284509451032
273.3995465452206
275.1242572118381
279.1869225778645
283.4911582406819
287.4811843168353
290.3634078711581
288.7503489563592
287.9444587920197
293.950901418661
299.460328813101
302.9301707097103
305.3951214256054
307.9326766573894
309.7124908812775
307.3852057358439
301.0266576483819
296.8962907410607
285.4516564588852
286.028909160478
287.6345226547035
289.3246614651622
291.8531409064561
295.0248577285118
298.7150081699385
302.8180663184767
306.7610427274809
310.0844611369302
312.1581529971447
312.4052722349543
308.2348743221282
305.140738195281
304.9581818491902
305.9985651567767
307.8223227389632
311.9728548673389
318.4358499271539
324.6697875082936
327.4945897385921
326.8203366083683
325.1351213155641
308.7509419114543
310.1602415075653
311.4832944020601
313.3883037685323
315.9370915976043
319.0309643050014
322.3068967355379
325.3072174601309
327.6927340819564
329.2002967252437
329.5096269534918
328.5355256503199
325.770438334345
322.321636133032
319.2147572468287
317.5870047114668
319.6087952264562
325.8365899033406
332.7235006520804
337.1493098435431
338.8766386995316
338.9955253849831
338.1193813680342
326.6233459152126
327.9308637528325
329.2243767245027
330.7283095401952
332.6317902015473
334.7401344686104
336.7021890723001
338.1979759840565
338.9992417838166
339.0297608730348
338.2479884833737
336.8991217763698
334.8409446463495
332.0132479246564
328.3396956159546
325.6808370405985
327.0980721751169
332.40892959029
337.8335066751935
340.6932520580071
341.2225886703945
340.6500399840963
339.5454992036871
337.6362425328772
338.7124355884627
339.4932601147864
340.417499258113
341.4850304789442
342.5237677026346
343.2892388684826
343.5579089945328
343.1837382126266
342.1586469182412
340.5931120061015
339.01337180514
336.6901094249192
333.1678595520909
329.25089811305
327.9991072302913
331.2548420350249
337.0121313149315
341.1271266543154
342.6464728454379
342.7114571853115
342.3856757966682
341.9372323279791
343.2884617765736
343.8264185758933
344.2238034072511
344.6154690814724
345.0237622475543
345.3210240248075
345.3204767632542
344.8314738237827
343.7223042920569
342.029354340298
339.9851171145373
338.1037180701096
334.8998656640122
330.9582772705123
328.8275690575397
331.0313774883597
336.897523473623
341.839647214186
343.8804531932238
344.2506464916746
344.1739422371381
344.0919573995716
343.8710253406559
345.4995899273383
345.6886788878829
345.7976500063913
345.8983412693854
345.9617548782579
345.8901918939808
345.5156909288128
344.6366492263884
343.1449731356333
341.2059087924995
338.9867778027182
336.8123426216191
333.1243664433304
330.4877903266689
332.3458107660424
338.416882930868
343.3360538836381
345.0238734778183
345.2262542142273
345.1496388188316
345.1121634965527
345.0479893994603
344.6945348814772
346.0801343179261
346.0950914127638
346.0973351916106
346.0829412922057
346.0215257694944
345.8233084311951
345.306550917589
344.2758512248956
342.7099752025202
340.8597031278402
338.8836291071116
336.9245088482851
334.4132727790503
335.2637880924395
341.5451819316567
345.5166929112758
345.8645554577755
345.7238408974721
345.6240054362932
345.5965547851936
345.5752155192044
345.4283551613703
344.9404628673264
346.0890874817416
346.0688074722802
346.0507905587793
346.0181650305413
345.9394633383196
345.7190694898645
345.1794543080574
344.1841824805391
342.8326427853635
341.4555657358796
340.2876116681438
339.5265119911496
339.9708601642262
343.6260936076959
347.1156735667922
345.9946793116066
345.8145164871713
345.8367243598929
345.8232516883291
345.816405590693
345.7676218873605
345.5729096422861
345.0349994156715
346.0114105042639
345.9976235180986
345.9867098268904
345.9654992069685
345.8995608245509
345.6957983073789
345.2192925002507
344.4380915308414
343.5639217299305
342.9438060129306
342.8287967082957
343.4306041252668
344.8803801723216
346.1249081458435
346.0164581911934
345.9227471489517
345.9143910577216
345.9290546792642
345.9184293900124
345.9059019743144
345.8473233927207
345.6546952133243
345.1324152249409
345.9701510678689
345.9674716690743
345.9653420619441
345.9554282088864
345.9083191733636
345.757651682346
345.4343497344892
344.9707707024426
344.5656969587422
344.469352925725
344.7766760349821
345.3380776575552
345.8250043635622
346.0145406505247
346.0322416058743
345.9506874452194
345.9538114853717
345.9616728664888
345.9539223951912
345.9408756513366
345.8891612081229
345.7255897421804
345.2745875447157
345.9654317140493
345.9674195812627
345.9685904567564
345.9650049051797
345.9400665399703
345.8600785081247
345.6955703647946
345.4736876569734
345.306472136624
345.3190412254335
345.5220389453779
345.7882183596191
345.9754566388854
346.030032585019
345.9897026191552
345.9628897711128
345.9690181169494
345.9721418480078
345.9670546952074
345.9580730014314
345.9227654790588
345.8091970624909
345.4858808453444
345.9726700152492
345.9740730747145
345.9748966698225
345.9742763830853
345.9667282656868
345.9398341110523
345.8790441519268
345.7888974806371
345.7131647735335
345.7131442515827
345.8054264762206
345.9310578839437
346.0073540994031
346.0081369758306
345.9788559161023
345.968089716604
345.9741041683483
345.9748515278347
345.9720672913037
345.9677262583854
345.949661764851
345.8897027429061
345.7115574857567
345.9766692493362
345.9766847722261
345.9767432270475
345.9770995904825
345.9777950517821
345.9764105336835
345.9665936561985
345.9442178373804
345.9193839108028
345.9158232964871
345.9458228905945
345.9877486154154
346.0054251630306
345.9917838383652
345.973755710474
345.9713091059031
345.9755046745108
345.9752838476191
345.9738890308226
345.9723366452545
345.9651142495318
345.9407525145685
345.8656502384698
345.976037908158
345.9757651421492
345.9756718318565
345.9760669106958
345.9780475233047
345.9825458129711
345.9886368674869
345.9929866539895
345.9931538220577
345.9917399945132
345.9934864350811
345.9964964292102
345.9926681241557
345.981262086202
345.972894424623
345.9732875183053
345.9756755963825
345.9751738083723
345.974482005251
345.9740719780443
345.971700065272
345.9638211277961
345.938513830201
345.9746734856923
345.9746826231494
345.9747463650394
345.9749550044399
345.9757816691163
345.9781477318363
345.9828754240288
345.9893813556919
345.9950858306823
345.9971222750934
345.9947539825419
345.9892848817848
345.9823596375265
345.9761696040998
345.9735352438447
345.974471820601
345.9754711918213
345.9750056203899
345.9746438354737
345.9745289108367
345.9737905432808
345.9716650548863
345.964773085423
345.9745740575875
345.97469655981
345.974804455247
345.9748859618707
345.9749642769377
345.9752577518836
345.9762451399701
345.9783380682087
345.981160697052
345.9832642949982
345.9830946251926
345.9805029210069
345.9770623172956
345.9747595301137
345.9743799229956
345.9750048467113
345.9752282743025
345.9748855597119
345.9746748917195
345.9745764380435
345.9742862419131
345.9737273109627
345.9720871534851
345.9749123126168
345.974957630024
345.9750083909413
345.9750312103839
345.9750171950118
345.9749717558524
345.9749455459842
345.9750652820659
345.9754471355631
345.9759794315709
345.9762658892589
345.9759854036673
345.9753341497143
345.9748888105988
345.9749269791801
345.9751150121086
345.9750512867934
345.974817943804
345.9746608375826
345.9745315715196
345.9743518043222
345.9741433766757
345.9737360675985
345.9748220161022
345.9748396487639
345.9748749576206
345.9748910870376
345.9748937068134
345.9748914698006
345.9748835977329
345.9748695107593
345.9748698613953
345.9749182198469
345.9750125254662
345.9750970597739
345.9751261110789
345.9751213107531
345.9751146275414
345.9750695774945
345.9749424353415
345.974776069547
345.9746267951223
345.9744796582967
345.974327039154
345.9741856560036
345.9740263654215
345.9746463088691
345.974684375851
345.9747346368891
345.9747764532213
345.9748101249127
345.9748486131724
345.9749019641795
345.9749648667553
345.9750234386277
345.9750712578779
345.9751129117025
345.9751498834801
345.9751693497758
345.9751532907335
345.975094766915
345.9749990481247
345.9748751073486
345.9747336466798
345.9745848461715
345.9744342319759
345.9742900451294
345.9741618269754
345.9740496136632
345.9746605029434
345.9746822628403
345.974719577009
345.9747498424636
345.9747701423506
345.9747877941973
345.9748168724723
345.9748677712943
345.9749376657834
345.9750112442164
345.9750706024394
345.9751039605843
345.9751065387388
345.9750771908877
345.9750166965362
345.9749278159267
345.9748146640551
345.9746822697351
345.9745377944285
345.9743911342788
345.9742528202827
345.9741302107909
345.9740289268128
345.9745763224602
345.9745930997774
345.9746247035076
345.9746525828762
345.9746730238557
345.9746905782925
345.9747150353219
345.9747543260756
345.9748094065803
345.9748732368664
345.9749332059272
345.9749757555935
345.9749908407437
345.9749739213813
345.974925131878
345.974847195497
345.9747438411027
345.9746199784456
345.9744832623801
345.9743443448988
345.974213678006
345.974097519094
345.9740015733196
345.9745200335947
345.9745303642175
345.9745548450372
345.9745780958667
345.9745955423943
345.9746085902513
345.9746247391456
345.9746523293561
345.9746947375358
345.9747479435441
345.9748020415203
345.9748448648398
345.9748657340733
345.9748579780277
345.9748195634258
345.9747519921127
345.9746586966031
345.9745446866574
345.9744177424012
345.9742886129139
345.9741676471982
345.9740602133391
345.9739703569359
345.9744569349605
345.9744617966945
345.9744795192058
345.9744974889471
345.9745111431733
345.9745201364296
345.9745297722307
345.974547541521
345.9745781551892
345.9746203929333
345.9746670975284
345.9747076161343
345.9747312367148
345.9747300763923
345.9747004714972
345.9746426392755
345.9745594373045
345.9744557535327
345.9743392616568
345.9742206130025
345.9741102592046
345.9740131674148
345.9739314354528
345.9743933366099
345.9743937859532
345.974405647321
345.9744185633192
345.974428183681
345.974432864441
345.9744360704756
345.9744443491429
345.9744631842495
345.9744935846883
345.9745309958202
345.974566654622
345.9745903989146
345.9745936209895
345.9745712312765
345.9745220892024
345.9744482757528
345.974354414391
345.9742479777417
345.9741393867582
345.9740393033047
345.9739530357222
345.9738812454544
345.9743282317959
345.9743255127189
345.9743326966901
345.9743412120632
345.974346986231
345.9743475652133
345.974344947895
345.9743446506728
345.9743524451144
345.9743710035997
345.9743981039232
345.9744270106777
345.9744485610982
345.97445391809
345.9744368670493
345.9743949153449
345.9743292002505
345.9742439167568
345.9741462266201
345.9740462007969
345.9739547177576
345.9738780306155
345.9738166263263
345.9742616155888
345.974256967646
345.9742608852923
345.974266040384
345.9742686094735
345.9742656310177
345.9742579792039
345.9742502092873
345.9742480867971
345.9742554760064
345.9742721112767
345.974293189714
345.9743107418357
345.9743160857828
345.9743022608226
345.9742656247186
345.9742063109368
345.9741279160875
345.9740371770765
345.9739437371542
345.9738585936464
345.9737892680992
345.9737372533111
345.9741933700552
345.9741880523165
345.9741901118929
345.974193121036
345.9741933859883
345.9741876308
345.9741758795372
345.9741618433015
345.9741511174638
345.9741483952404
345.9741550142678
345.9741679135616
345.9741803676006
345.9741840794837
345.9741716614976
345.9741385640843
345.9740839511488
345.9740106541213
345.9739248510005
345.9738357436046
345.9737543472164
345.9736894159649
345.973644312385
345.9741235237846
345.974118617334
345.974120125672
345.9741221708373
345.9741210979707
345.9741134132991
345.9740985214975
345.9740794079209
345.9740614073467
345.9740497561391
345.9740470684233
345.9740518212809
345.9740585381915
345.9740594744731
345.9740470366359
345.9740159234832
345.9739643738672
345.9738944236063
345.9738116537987
345.9737248024206
345.9736447799717
345.9735813664765
345.9735401806176
345.9740520879511
345.9740485289426
345.9740505209114
345.9740525960942
345.9740510262719
345.9740421736119
345.9740249858101
345.9740018693
345.9739778700486
345.9739585744155
345.9739475779227
345.9739446665683
345.9739455157779
345.9739430039228
345.9739295016598
345.9738991393421
345.9738493222954
345.9737812642571
345.9736999123719
345.9736135428884
345.9735329106098
345.9734685328114
345.9734280551821
345.973979212034
345.9739776328375
345.9739808099677
345.9739835628808
345.9739820517237
345.9739725416764
345.9739536621658
345.9739273717755
345.9738984647907
345.9738727320623
345.9738544989203
345.9738445900753
345.9738396637294
345.973833214321
345.9738177008368
345.9737868870674
345.9737375195534
345.9736700894659
345.9735889031151
345.9735017609876
345.9734191852369
345.973352104121
345.973309825737
345.9739050280128
345.9739057607204
345.9739103836101
345.9739140331123
345.9739127445556
345.9739027340698
345.9738824333666
345.9738534968586
345.973820514101
345.9737894067483
345.9737650147991
345.9737489395322
345.9737386135433
345.9737280489235
345.973709862223
345.9736776270202
345.9736276463238
345.9735598370767
345.9734779305107
345.9733892566192
345.973304054965
345.9732334097979
345.9731876049283
345.9738298231043
345.9738326805731
345.9738384877238
345.9738426998447
345.9738413015733
345.9738305257402
345.973808725062
345.9737773742758
345.9737409288784
345.9737053791119
345.9736758858919
345.9736545359045
345.9736392453037
345.973624378857
345.9736027189883
345.9735678498947
345.9735159709984
345.9734467551083
345.9733635512391
345.9732732025641
345.9731855116711
345.9731113415124
345.9730613779191
345.9737538674162
345.9737579139564
345.973763934733
345.9737677497105
345.9737653501735
345.9737531352488
345.9737295160264
345.973695894026
345.973656620156
345.9736176364092
345.9735841733408
345.9735584744651
345.9735386472362
345.97351922928
345.9734931912908
345.9734543607092
345.9733991924771
345.973327532868
345.9732426470407
345.9731509770453
345.973061696442
345.9729850707194
345.9729315480298
345.9736752716906
345.9736796444587
345.9736842054691
345.9736857623867
345.9736807580311
345.9736661005679
345.9736405027834
345.973605354485
345.9735646763085
345.9735238909014
345.9734877070571
345.9734580231166
345.9734329134764
345.9734072555266
345.9733746838814
345.973329883057
345.9732701729376
345.9731959845699
345.9731106095909
345.9730197945298
345.9729314427993
345.9728544880899
345.9727986972657
345.9735874583247
345.9735904163838
345.9735905165428
345.9735865623425
345.9735763161838
345.9735580971447
345.9735314799821
345.9734977233232
345.9734595795364
345.973420343099
345.9733824813288
345.9733465236042
345.9733107823768
345.9732721030879
345.9732272190288
345.9731739532322
345.9731117106476
345.9730412572782
345.9729643339722
345.972883632744
345.9728033434197
345.9727293190628
345.972670141329
273.0155447305466
273.0167313117768
273.018213240905
273.0201681262171
273.0211757931004
273.0214779486714
273.0220879592299
273.0229765111271
273.0427215343454
273.0407675671156
273.0395191111708
273.0387561244439
273.0894951370746
273.0840304678447
273.0796104707477
273.0759643596564
273.140174913937
273.1317199814932
273.1252628603269
273.120155920398
273.4515123521361
273.3077999574539
273.2348728229342
273.1959528730373
295.5414661749354
294.6596474600099
293.8628556001086
293.6301920351702
324.4757092108315
323.9345336464985
323.201498717958
322.5038376374395
337.6438900756038
337.1388008358757
336.5330021004427
336.0655384098141
339.0318578654574
338.5371866693276
337.9829164926516
337.5089196908724
341.726900408623
341.4930151226544
341.1344927577177
340.7982686263733
343.6884403552325
343.3558256940203
342.7550423635248
342.0530138914766
344.29872123993
343.6011168050075
342.5110084826974
341.1182512936059
344.2464512649866
343.1737673559975
341.6575597824948
339.5714116282794
344.0586208182322
342.7759508417877
341.0070526828113
338.5189417435914
344.0188142086845
342.7416618416696
340.9283712502121
338.4219232778542
344.254612187177
343.1270904748257
341.4876353507208
339.2322922226567
344.7299559293323
343.8676023327533
342.5851599814833
340.7663930243336
345.2757884911735
344.7578968364112
343.9596729180553
342.7822575872421
345.6737813037772
345.4372405333492
345.0607429991028
344.4852202522704
345.870168936089
345.7817709874101
345.6357631227397
345.4048334561741
345.9453270395551
345.9189774765093
345.873521516024
345.7982512819176
345.967409777903
345.9608614759401
345.9491316090383
345.9288640954311
345.972705580735
345.9712851879127
345.9686896759158
345.9640500715948
345.9737580226804
345.9734435082311
345.9728980850314
345.971923626092
345.9739287516107
345.9738229591939
345.9736746083512
345.973435911361
345.9739414552823
345.9738742104023
345.9737971133284
345.9736911080948
345.9739266248122
345.973869304759
345.9738079804525
345.9737281322444
345.9739036783099
345.9738510209538
345.9737964831669
345.9737258774633
345.9738726491802
345.9738233854448
345.9737739319191
345.9737097553772
345.9738313867373
345.9737850451761
345.9737399326507
345.9736813578023
345.9737770575063
345.9737338631876
345.9736926826582
345.9736391037989
345.9737085408414
345.9736688490202
345.9736312347702
345.9735819730874
345.9736256377139
345.9735897595061
345.9735554139784
345.9735097939669
345.9735296531441
345.9734976660083
345.9734663197735
345.9734236851349
345.9734226058344
345.9733940133074
345.9733652628777
345.9733250855214
345.9733065381014
345.9732807592324
345.9732542704107
345.9732161252001
345.973183643083
345.9731596415248
345.9731348296662
345.9730983326165
345.9730550137505
345.9730320562282
345.9730084682712
345.9729732147801
345.9729221528009
345.9728994643957
345.9728764767549
345.9728419590451
345.9727861637401
345.9727629210886
345.9727394924791
345.9727045290962
345.9726509230977
345.9726237694298
345.9725961524985
345.9725570894367
273.0276728214101
273.0872423826605
275.7810429050173
279.8852834826924
296.4038000343532
318.2551357716094
326.0221936273828
333.0312896464361
339.5154208337792
343.6194207761714
345.3479548908659
345.8591318585375
345.9641353454773
345.9816555970785
345.9841643680588
345.9844287926686
345.9844158199118
345.9843884584407
345.9844210634316
273.026950581225
273.0439099891621
273.1043221339684
273.1332136990607
273.3985785825094
274.3673244536074
293.1530935355303
309.0818144743707
323.9973123127676
336.1268806010866
342.7110457984758
345.1854601649354
345.8241473449661
345.9576257560424
345.9807838536591
345.9839783032313
345.9842702593522
345.9842532123966
345.9842774317656
273.03891161021
273.043896799968
273.0606022544259
273.0832109678538
273.1062510116348
273.121162328819
273.1839799934826
274.8709532277788
296.6388369238375
318.3122243621697
334.3522093334407
342.3226790211843
345.0575833704679
345.7965357527846
345.9541578585848
345.9804979330775
345.9837927788229
345.9840421657429
345.984072891043
273.0702935001008
273.0679500862142
273.070767274098
273.079499942662
273.0934651517801
273.1104251025046
273.1269942928852
273.1432302297785
273.3847576150613
294.0944573388202
318.1167955393212
334.5625047025006
342.3282703934814
345.0736081629368
345.8085731825354
345.9584080978399
345.981207648722
345.9836232168154
345.9837967956965
273.1108433434296
273.103672407314
273.0992627061386
273.0987625085105
273.1031947595291
273.1129392152259
273.1272267028362
273.1444929735415
273.166278656096
273.3144530278601
293.4152757148273
320.0257757385428
335.8012702023846
342.884877956273
345.2686112368823
345.8612515318874
345.9687347278427
345.9823257118217
345.9834139820251
273.1545048464554
273.1369074257374
273.1248375432581
273.1196663068686
273.1186212203589
273.1222485826212
273.1314598483278
273.1464416944826
273.16635335444
273.1922450989782
273.4769483212361
298.4571681814405
322.5418307583655
337.176246056859
343.5221163447221
345.4835399185325
345.912414126789
345.9767156441338
345.9827486768739
291.5759160260466
279.3533652793495
273.9219652070049
273.3586277456806
273.189218354274
273.1590097752098
273.1546149798638
273.160083351167
273.1753265468819
273.1989847115433
273.2374806213272
274.7749011464807
306.3202242744322
328.6067499128486
340.3125463511195
344.6542976231967
345.7684312883286
345.9608801536558
345.9814360059735
317.6716642992347
311.6482158592333
307.8234930588537
299.73526177702
284.7933201371324
273.7374748393538
273.2207319701245
273.1990013195077
273.2004960544426
273.2178293946181
273.2538699498658
273.3763958179802
295.109029894634
319.9221947840487
336.2904081655188
343.4269456431963
345.5228959474629
345.9305632044123
345.9791005474074
333.5845354695232
329.4406835582717
324.6696161965804
317.7056302020681