/*--------------------------------*- C++ -*----------------------------------*\
| =========                 |                                                 |
| \\      /  F ield         | OpenFOAM: The Open Source CFD Toolbox           |
|  \\    /   O peration     | Version:  2206                                  |
|   \\  /    A nd           | Website:  www.openfoam.com                      |
|    \\/     M anipulation  |                                                 |
\*---------------------------------------------------------------------------*/
FoamFile
{
    version     2.0;
    format      ascii;
    arch        "LSB;label=32;scalar=64";
    class       volVectorField;
    location    "0.3";
    object      U;
}
// * * * * * * * * * * * * * * * * * * * * * * * * * * * * * * * * * * * * * //

dimensions      [0 1 -1 0 0 0 0];

internalField   nonuniform List<vector> 
2268
(
(0.03150223979129309 -0.01412887188781371 0)
(0.0709494438596448 -0.01423528861271 0)
(0.1212376263773493 -0.01396090357801237 0)
(0.1704235695433958 -0.01384564367320235 -2.470201248020892e-24)
(0.2187732986574047 -0.01372507418014446 -5.016089015076249e-24)
(0.2666722663015915 -0.01352897592778029 -2.574479502818367e-24)
(0.3139678012836651 -0.01326177941142967 -2.643962555859964e-24)
(0.3603162100565551 -0.01291564167208133 -5.435704969552469e-24)
(0.4053165536574787 -0.01246460508778379 -5.604295263333676e-24)
(0.448477479302078 -0.01187367330192772 -2.898741554353867e-24)
(0.489163419358242 -0.01110003596143016 0)
(0.526550763857745 -0.0100907936078038 0)
(0.5595798990776188 -0.008780055722774757 0)
(0.5868904620843102 -0.007085380850621614 0)
(0.60673495222575 -0.004904712018901496 0)
(0.6168734213763035 -0.002121120066348373 4.252659665294763e-24)
(0.6145439570210128 0.001366013532484752 4.815158657321514e-24)
(0.5962577763068481 0.005944589127901743 5.62524312920199e-24)
(0.557676386375089 0.01206678161033602 1.310785506865996e-23)
(0.4937631683575842 0.02023748797952814 7.275184103380706e-24)
(0.4008526940487634 0.03065329690095371 0)
(0.2584197604493719 0.04420103639850383 0)
(0.134311314943403 0.0575202510857719 0)
(0.0316329686212795 -0.03372483774428574 0)
(0.07169984300979558 -0.03398796374679634 0)
(0.1224833878414422 -0.03363815940841886 0)
(0.1720384299688515 -0.03354533724527095 -6.11737532434538e-24)
(0.2208101514091447 -0.03336793449925898 -1.240261239608399e-23)
(0.2691548231592073 -0.03298017659782234 -6.364880372530855e-24)
(0.3169026954478255 -0.03238871120277634 -6.554450617044584e-24)
(0.3637231707200036 -0.03156498554043188 -1.355087578043549e-23)
(0.4092290024909234 -0.03043801779381404 -1.408883699016643e-23)
(0.4529405743172223 -0.02891301053102131 -7.369583098004225e-24)
(0.4942371637873855 -0.02687210811028183 0)
(0.5323163050373806 -0.02416694862057182 0)
(0.5661489340870316 -0.02060798082141345 0)
(0.5944191740984968 -0.01594909978244231 0)
(0.6154428836989931 -0.009869439076831726 0)
(0.6270274484352977 -0.001960267357544172 1.196492109255856e-23)
(0.626346001400362 0.008209869254400653 1.395748157562441e-23)
(0.6098264239118812 0.02126857772144912 1.665084880902034e-23)
(0.5729127222019786 0.03786297658777079 4.003444930479288e-23)
(0.5099961202288962 0.05841629329761239 2.375357182777376e-23)
(0.4166208334892572 0.08220272737321119 0)
(0.2700584340861262 0.1083878507901205 0)
(0.1390763525374167 0.1253290085501151 0)
(0.03117767640702921 -0.05805639204973693 0)
(0.07164024167867623 -0.05832049902126396 0)
(0.1225344859953144 -0.05796276386199055 0)
(0.1720723694616907 -0.05782119627238105 0)
(0.2209087315655401 -0.05750756917709921 0)
(0.269354907295067 -0.05688583982848867 0)
(0.3172250627134937 -0.05594289921570886 0)
(0.3642075124658923 -0.0546170870586753 0)
(0.4099334348011963 -0.05279121070741373 0)
(0.4539384665539551 -0.05031054858327239 0)
(0.4956195347020173 -0.04698164693069939 0)
(0.5341972455013807 -0.04256189578142386 0)
(0.5686731206084052 -0.03674350801858037 0)
(0.5977698978820757 -0.02912985314561456 0)
(0.6198465399107327 -0.01920935061114396 0)
(0.6327822602945877 -0.006332692666726874 0)
(0.633874463780852 0.0104138132875299 0)
(0.6197440661916296 0.03215325108660518 0)
(0.5858161189962159 0.06005661614590944 0)
(0.5260538066703995 0.09512232979618954 0)
(0.435175368167148 0.1368923816360966 0)
(0.2873017922571439 0.1839087004246766 0)
(0.1488903067436737 0.2178893636594949 0)
(0.03077035653229722 -0.08125622329755861 0)
(0.07170688416816849 -0.08153385476479637 0)
(0.1227149554631946 -0.08121611456420465 0)
(0.1722621465567371 -0.08099246645217124 0)
(0.2212033009304527 -0.08049834330768878 0)
(0.2698022042896538 -0.07960910486203385 0)
(0.31786391465458 -0.07828661197284109 0)
(0.3651009492616711 -0.07643337206685319 0)
(0.4111686420039626 -0.07388744639374026 0)
(0.4556249882934576 -0.07043590558590669 0)
(0.4978929304653718 -0.06581075733003802 0)
(0.5372266075004114 -0.059676127048346 0)
(0.5726723208401144 -0.05160571887892467 0)
(0.6030107559550808 -0.04104632179066225 0)
(0.6266720074193702 -0.0272755042460559 0)
(0.6416218991424995 -0.009359099711366961 0)
(0.6451839247170544 0.0138567184699642 0)
(0.6341859948467862 0.04378325383796471 0)
(0.6041007386144579 0.08225889869165516 0)
(0.5486021598477955 0.1312595659432594 0)
(0.4616323036037981 0.1914839182929633 0)
(0.3133160563819135 0.2620523959151459 0)
(0.1651521812146778 0.3195207846372909 0)
(0.03040496347016174 -0.1040177764872259 0)
(0.07183560647360264 -0.1044053491766588 0)
(0.1229713352895385 -0.1042704233108495 8.590607734046331e-23)
(0.1725748681221413 -0.1040600098223726 8.705805269759938e-23)
(0.2216711179306444 -0.1034851126183869 0)
(0.2704833315473582 -0.1024406123476624 9.274214049466718e-23)
(0.3188166473360393 -0.1008596573784497 0)
(0.3664116509825197 -0.09860818924452841 -1.02300294165826e-22)
(0.4129528444292945 -0.0954817184269002 0)
(0.4580278056935971 -0.09121268473557916 -1.166555720918124e-22)
(0.5010940434047945 -0.08546340315191556 -1.261103469832991e-22)
(0.5414499091703932 -0.07781234258393756 0)
(0.5782010914004291 -0.06772555101125578 0)
(0.6102046505163212 -0.05450624982521826 0)
(0.6359790915849548 -0.03723868437482018 0)
(0.6536031489476907 -0.01473913812785824 2.173322920565366e-22)
(0.6604066571408372 0.01458007626545097 2.54390175328211e-22)
(0.65354713219326 0.05250704053775906 0)
(0.6286190238448894 0.1014739589848883 0)
(0.579112687887144 0.1645431132132077 0)
(0.4981736249222787 0.2442815833800634 0)
(0.3510037116731487 0.3421764754472406 0)
(0.1901425811321426 0.433093109329536 0)
(0.03010660131255425 -0.1264175100310702 -1.400079925223781e-22)
(0.07203516369514905 -0.1268115077698972 -1.390130648828113e-22)
(0.123306991085822 -0.1268285705019414 1.051339419226502e-22)
(0.1730233252929496 -0.1265801706799247 1.063482793572664e-22)
(0.2223268902265834 -0.1258958950478329 0)
(0.2714151719413251 -0.1246915547580371 1.125014452008162e-22)
(0.3201035359596707 -0.1228678756021736 0)
(0.3681635913147745 -0.1202538106585807 4.122140160249531e-23)
(0.4153137388315674 -0.1166036966896667 1.753122669071381e-22)
(0.4611783636457367 -0.1115979432959936 -1.410917743686559e-22)
(0.5052578928849409 -0.1048332225329277 -1.527517066519289e-22)
(0.5469050971043008 -0.09580941736289569 0)
(0.5852989498217386 -0.08389504637666512 -3.678335891551501e-22)
(0.6193914208192717 -0.06826119131264027 -4.09868459745658e-22)
(0.6478148105579051 -0.04781442598706779 -3.085527249582992e-22)
(0.6688137855895372 -0.02116091708805899 -8.860200572753715e-23)
(0.6797279342332717 0.01351880185064642 3.112272963322915e-22)
(0.6780454392882883 0.05866244480812507 0)
(0.6596397433798989 0.1173654418872895 0)
(0.6182416819909179 0.1940198923420324 0)
(0.546651273256773 0.2940259885797063 0)
(0.4047920768707318 0.4240610607026572 0)
(0.2281625164527662 0.566118580431248 0)
(0.02991713286042908 -0.1500019711905433 -1.840721428388088e-22)
(0.07236734222892661 -0.150222869681111 -1.83584168894679e-22)
(0.1237619197169399 -0.1502918337458115 0)
(0.1736483144572544 -0.1498901455660301 0)
(0.2232028469060714 -0.1489988627467926 0)
(0.2726210924077107 -0.1475578409309734 0)
(0.3217407944169731 -0.14543380828047 0)
(0.3703671333112105 -0.1424188709480097 2.153616441266322e-22)
(0.4182570739790359 -0.1382271409877329 2.274949379811507e-22)
(0.4650787788424799 -0.1324884566497209 0)
(0.5103830179921977 -0.124736064311579 0)
(0.5535846131430217 -0.1143955348199155 0)
(0.5939428839510796 -0.1007416035937513 -4.605736822977071e-22)
(0.630508947528831 -0.08280901387687811 -5.0791707433644e-22)
(0.6620285885496855 -0.05930382005693731 -3.783397156823627e-22)
(0.6868905710888947 -0.02855034023685646 -4.298037007363204e-22)
(0.702666785251395 0.01160437953637734 0)
(0.707266184566089 0.06333752081203879 0)
(0.6969081605229229 0.1305156005022691 0)
(0.6662199774721822 0.2191726278730146 0)
(0.6089091974657667 0.33876804078204 0)
(0.481728300477069 0.5051008596154991 0)
(0.2866432051876284 0.729142883378634 0)
(0.029858265640942 -0.1775442255457684 0)
(0.07287727401676826 -0.1777381923897535 0)
(0.1243607865720655 -0.1779332350966678 0)
(0.1744863038765768 -0.1774812450787094 -2.304343733765676e-22)
(0.2243377682486768 -0.1764877625553607 -4.725336560455165e-22)
(0.2741423434405512 -0.1749117922877112 -2.438097116946717e-22)
(0.3237759976428747 -0.1725908103721964 -2.53417349765279e-22)
(0.3730809472438276 -0.1692811665118005 -2.653695372645938e-22)
(0.4218587705124021 -0.1646559595649795 0)
(0.4698297829780714 -0.1582933082052035 0)
(0.5166039320139588 -0.1496630494291276 0)
(0.5616666669555802 -0.1381218058813926 0)
(0.6043634626701292 -0.1228609467786372 3.72096270674564e-22)
(0.6438460964045531 -0.1027922539320382 4.080601426626104e-22)
(0.6789811894939534 -0.07644556805839767 4.534064417999398e-22)
(0.70830337790026 -0.041917813470562 1.025414013721242e-21)
(0.7296206498370132 0.003160273525457516 5.91676619646523e-22)
(0.7408866552537272 0.06146386903970462 6.818970198580721e-22)
(0.7396202257821317 0.1372164419001924 1.637586215199742e-21)
(0.7223160975866214 0.2375988180667442 1.045918848499931e-21)
(0.6858601846965008 0.3766025768629385 0)
(0.5933513664961503 0.5837054568439386 0)
(0.3782142311132342 0.9572727811378887 0)
(-0.02141909959910845 0.008615218107403387 0)
(-0.02810252978781067 0.0002443602656960787 -1.866858993630072e-21)
(-0.06274720372964135 0.01196768526403406 -2.739598281385595e-21)
(-0.1011099507223252 0.005158212358807334 -4.700527484124183e-24)
(-0.1070401708387421 -0.001758310471657635 -3.352321763944515e-21)
(-0.07702911911769467 -0.01015313776272508 -3.070408570941621e-21)
(-0.01368851393741062 -0.01517444066697769 0)
(0.06445232699631695 -0.01686731956355824 0)
(0.1413022084907824 -0.01563084176921608 -2.481161870149957e-22)
(0.2083928768905145 -0.01246107967080571 1.075290625546289e-21)
(0.2584157509954094 -0.008099160535040482 -3.957769668455518e-21)
(0.2879006158848033 -0.003528181915211743 -5.069727074257202e-21)
(0.2963675119110254 0.0006833854467216465 -5.50448223452519e-21)
(0.2852843799106013 0.004492866120041524 0)
(0.2569175850759295 0.00780775520674349 0)
(0.2142274182707519 0.01051655726265531 -2.125176288146229e-24)
(0.1604772772195548 0.01257304201394759 5.905801484961146e-21)
(0.0989375637343291 0.01393460284977542 3.546201934227227e-21)
(0.0348823468901041 0.01462002430519676 7.689551007881615e-24)
(-0.03285892458518758 0.02524888465191909 0)
(-0.03987694375271363 -0.003391494625660415 -1.790600735451999e-21)
(-0.07541799720998102 0.03732312448161691 -2.540608701331608e-21)
(-0.1203842690255294 0.01381381362175392 -1.307978141182925e-23)
(-0.1231851775930037 -0.007034586762991422 -3.427289732851057e-21)
(-0.08811577978813197 -0.03159744548691804 -3.103522767056088e-21)
(-0.01756895302219055 -0.0463218340575442 0)
(0.0678706258754571 -0.05094283325832678 0)
(0.1505335686232112 -0.04766082643666662 0)
(0.2222622037352299 -0.03844340359284616 -2.173351203483629e-21)
(0.2759368629007889 -0.0256156773877113 -4.011749089066453e-21)
(0.3079472169654078 -0.0117302706751951 -5.144611828707975e-21)
(0.3174542719895845 0.001585521141730853 -5.580451535948185e-21)
(0.3058158055361843 0.01362398606669279 0)
(0.2755981792495298 0.02390543690251414 0)
(0.2300055029476865 0.03215490175353936 -6.906648776440563e-24)
(0.1725241175838138 0.0383116656822682 5.903824398462095e-21)
(0.1065730247151041 0.04235796282028474 3.557425404470861e-21)
(0.03767655833481617 0.04377815735750279 2.504536621391326e-23)
(-0.04547154726627531 0.05256238221017299 0)
(-0.04180014042899097 -0.009687491731184612 -8.487873997355151e-22)
(-0.07354174332679572 0.06907177601266662 -1.041964412156778e-21)
(-0.1347857481133578 0.02204765033778912 0)
(-0.1369708004358923 -0.01232358655497592 0)
(-0.1001560572503815 -0.05570209608226353 0)
(-0.02339352086586459 -0.08071545178231289 0)
(0.06803166124296758 -0.08780845230243058 0)
(0.1545376889282409 -0.08178050205438685 -3.013321693012388e-22)
(0.2289673530218976 -0.06565657705488287 -1.123102582064439e-21)
(0.2841197314095494 -0.04372611100557569 -8.314816253078148e-21)
(0.3164842737020484 -0.02009580424686637 0)
(0.3258102709879457 0.002673265260503257 0)
(0.3137101012270049 0.02323501661390362 0)
(0.2826668941506927 0.04071981632945221 0)
(0.2359263138379307 0.05475307782712044 0)
(0.1770152746511844 0.06523274350105165 5.996204763086571e-21)
(0.1093703352115092 0.07215412735473389 3.573845053076728e-21)
(0.03869417953176905 0.07477979925163009 0)
(-0.06470223667699276 0.08525879117706178 0)
(-0.04126361967090361 -0.02745580431097402 -3.268662112209939e-22)
(-0.06748150788646141 0.1095579336294344 -1.894460760621363e-21)
(-0.1570860182153408 0.02912873582222741 0)
(-0.1570336363281533 -0.01641368364231901 0)
(-0.1180770735159163 -0.08330223134785793 0)
(-0.0312975836463701 -0.1184129856326578 0)
(0.06878987254278675 -0.1273872156064921 0)
(0.1605824157111028 -0.1178455018754036 -7.396300618817626e-22)
(0.2387563333977015 -0.09398062160922439 4.739283800355983e-21)
(0.2957233739561628 -0.06228378850194835 -4.396479722231102e-21)
(0.3283146408095919 -0.02843682927719494 -5.612385867810016e-21)
(0.3369541236252253 0.004036887873209874 -6.036780194218023e-21)
(0.3236153194061858 0.03328222330411622 0)
(0.2910031261446024 0.05810335103563373 0)
(0.2425294620986562 0.07803985403600923 -2.19055874541118e-22)
(0.1817916302661722 0.09294385151597054 2.774894318362404e-21)
(0.1122265097500315 0.102812393392021 1.830637682524993e-21)
(0.03970412712623373 0.1066669953824397 0)
(-0.09511453244278396 0.1370105141674885 0)
(-0.0381733374502601 -0.04911429471738316 -7.40303893694314e-22)
(-0.05589095420117683 0.1644859951512972 -2.058231508120246e-21)
(-0.1888107825283503 0.03415984044609119 -2.020642091611885e-22)
(-0.1816793955141831 -0.01841597116372131 0)
(-0.1392678120930226 -0.1155581632897609 0)
(-0.03805740542177195 -0.1595207886709948 0)
(0.07184950900089017 -0.1698659869868032 0)
(0.1697981937075557 -0.1560782818164055 -4.863296795022009e-22)
(0.2526833535785939 -0.1236561285337782 1.275327444215789e-21)
(0.3117879634336509 -0.08135058558038802 -4.738917608960762e-21)
(0.3444308292219621 -0.03660268637759639 -1.201591627224619e-20)
(0.3519551887950029 0.005990077693025652 -6.40918627187234e-21)
(0.3367802974755587 0.04407921237801915 6.08042209521386e-21)
(0.3019346097197833 0.07632674040254185 0)
(0.251071994878152 0.1022084288797037 -2.961099074120767e-22)
(0.1878920996040087 0.1215546909080027 -8.11539780629631e-22)
(0.1158396848442105 0.1343754068458542 -4.811442688841864e-22)
(0.04097593112886402 0.1394540268451698 0)
(-0.1370093636477612 0.1353379080616875 0)
(-0.01422117456835334 -0.1141727757056437 -4.456314329207167e-22)
(-0.04210357526290381 0.2428738238455176 2.876599530764895e-21)
(-0.2303469516228317 0.03863259395111501 1.233096599473713e-22)
(-0.2035805086956131 -0.0177898762321517 0)
(-0.1526827385824837 -0.1535761507638286 0)
(-0.03497773885459087 -0.2033097422789463 0)
(0.0803158677244994 -0.2141121732063575 1.2901363775089e-21)
(0.1837691231411184 -0.1959599446698763 1.620484066474318e-21)
(0.2717633945462405 -0.1542840107312674 -5.606228811453087e-21)
(0.3330458282941223 -0.1006380093002098 -1.158725622037281e-20)
(0.3652893086083042 -0.04442490726899517 -1.38037193816398e-20)
(0.3710874652105744 0.008702552673231532 -6.877095877905796e-21)
(0.3534186039618091 0.05587668857430864 6.452881710300997e-21)
(0.3156813141364176 0.09566290693744184 0)
(0.2617701262037068 0.1275301636585508 0)
(0.1955052764548074 0.1513247163756688 -5.153744523384959e-22)
(0.1203440590255916 0.1670850988509776 -1.416485405679107e-21)
(0.04256611945796506 0.173382165938732 -8.700656273586462e-22)
(-0.1594648666121146 0.384588731731014 0)
(0.1657413893270816 -0.3027971114880638 -1.700453317438372e-22)
(-0.005734807426072205 0.4308536666557656 7.525325933936545e-21)
(-0.2761308959463178 0.03002864505010964 8.972768614448467e-22)
(-0.1991027683501413 -0.01943860365488202 0)
(-0.1313978331062435 -0.2048696106285401 0)
(-0.004685291862395439 -0.2518166942644461 0)
(0.1019221897831753 -0.2606483036901266 1.370347660704803e-21)
(0.2059275007492194 -0.2381439226790158 1.874910603834034e-21)
(0.2977510359766484 -0.1861178906120955 -3.129464264461389e-21)
(0.3605779019563849 -0.1197265443556567 -7.155680249777072e-21)
(0.3915026616621111 -0.0512724260210915 -1.516608729016792e-20)
(0.3946839517848101 0.01264678741147363 -1.487647548153274e-20)
(0.3736887748519427 0.06904430151966157 0)
(0.3323178283732191 0.1164410733038414 0)
(0.2746733184076497 0.1543250861668075 0)
(0.204668375655231 0.1825651138715984 0)
(0.1257657535062379 0.2012289108511289 -9.908768250383239e-22)
(0.0444911898983527 0.2087198243147192 -1.062751485956432e-21)
(0.5198108457036501 -0.116255222515594 -3.275371144707212e-21)
(0.4875303059579533 -0.2819238667359937 -1.147573354459772e-20)
(0.2148937173799831 0.55524995111359 -9.534680180227782e-22)
(-0.3167152312043118 0.06732563616337839 0)
(-0.0975771519875385 -0.05772465171153789 0)
(-0.03223869047974219 -0.2896223772979735 0)
(0.07632961068147764 -0.3073988679695874 0)
(0.153105211674563 -0.3130955186195945 0)
(0.244367961034209 -0.2898157082834896 -1.561499480890828e-21)
(0.3350725018998416 -0.2238607160471848 1.748572384838668e-21)
(0.397237939290291 -0.1410663416636609 -6.51522582657888e-21)
(0.4246838196117855 -0.05779261823401274 -7.90991598274106e-21)
(0.4234021523000406 0.0178227491139328 -8.080824755261961e-21)
(0.3978665641224871 0.08348208092797874 0)
(0.3519621147634103 0.138231415596341 4.759353630964546e-22)
(0.289836492915818 0.1818247171649859 7.750168645361629e-22)
(0.2154010777629109 0.2142512688451456 3.760664214136809e-21)
(0.132105364258238 0.2356285501166102 3.385298490272896e-21)
(0.04673872351411385 0.2442851471216534 1.249370836757201e-21)
(0.02981565786968906 -0.2073466963630647 0)
(0.07341230615274261 -0.2079252388312509 0)
(0.1249606889584742 -0.2082323418918253 0)
(0.1754042067665727 -0.2078997704367597 -2.579744251219456e-22)
(0.2256141434287983 -0.2069749876815904 -5.301552680074015e-22)
(0.2758831593696111 -0.2054128087233911 -2.746130016135706e-22)
(0.3261420507302845 -0.2030368082616939 -4.447426760339146e-37)
(0.3762775013905907 -0.1995670984528374 4.216424828381747e-37)
(0.4261460645697959 -0.1946283279180754 0)
(0.4755324003239987 -0.1877363233595211 3.469837356405515e-22)
(0.5241186172841867 -0.17828511374621 3.756610157916155e-22)
(0.5714758600992674 -0.165552713609686 -2.047002943036792e-22)
(0.6170559239817484 -0.1486355967474682 2.246756876967527e-22)
(0.6601506107661893 -0.1263029876465003 4.972767618626764e-22)
(0.6998627251830961 -0.09689164513720713 8.337484463676166e-22)
(0.7351705652751653 -0.05833119736281179 1.5686693315766e-21)
(0.7653479749843629 -0.008257248663977455 7.143975991136753e-22)
(0.7889900430700435 0.05621710802530951 8.139607055413268e-22)
(0.8090138012473153 0.1373620484349405 1.897221330458252e-21)
(0.8286782781880901 0.2425533163070392 1.147516129687597e-21)
(0.8606658750069069 0.3843837531574724 -1.471263290534925e-21)
(0.9616747422896205 0.5831219378492111 -1.949718892377899e-21)
(1.087729594275474 0.9206818967402128 0)
(0.02945464898342167 -0.2616006916768421 0)
(0.07403766700203718 -0.2627659659836196 0)
(0.1258366263311677 -0.2630983195904316 0)
(0.176726476299809 -0.2628822283419842 0)
(0.2275983794881163 -0.2620844609325266 0)
(0.2787639209290106 -0.2606370328814045 0)
(0.3302454600849505 -0.2583449307288971 3.283300842461276e-22)
(0.382032216959959 -0.2548783337688257 3.505924824115896e-22)
(0.4340926290723073 -0.2497894947601968 0)
(0.4863267599068462 -0.2424908224822056 4.143142397880245e-22)
(0.5385245955570018 -0.232248262690277 4.565035925491288e-22)
(0.5903576339734617 -0.2182172452901749 -2.527556314985272e-22)
(0.6413680752025829 -0.1993617591472709 -2.811482659033872e-22)
(0.6909114918439803 -0.1742934373284356 0)
(0.7381304984972515 -0.1411786263823629 3.544087288591225e-22)
(0.7820234150616243 -0.09809434685851964 3.986762667066542e-22)
(0.8224316661890956 -0.0439378026693336 0)
(0.8578149977764931 0.02213816786431971 0)
(0.8920578355115788 0.1026299837820036 0)
(0.9313608466271102 0.2000024478482503 0)
(0.9849843094200871 0.3157343240834836 -9.91227406121079e-22)
(1.078930340336838 0.4453895033658011 -5.287052183214905e-22)
(1.214901801291867 0.5471536123206046 0)
(0.02932705863717705 -0.3118562081082672 0)
(0.07498391197078758 -0.3133124692257912 0)
(0.1270740985023857 -0.3137161955599921 6.632189681594476e-22)
(0.1784206213112906 -0.3136223714949226 6.805884170646042e-22)
(0.2299935183386612 -0.3130448890023423 0)
(0.2821259363766628 -0.3119062369111971 0)
(0.3349366264678696 -0.3099905053043362 0)
(0.3885245222905301 -0.3069246890011959 0)
(0.4429693138293443 -0.3022198292866033 0)
(0.4982583664050718 -0.2952002970313009 0)
(0.5542228028808657 -0.2849904341976925 0)
(0.6105437160961174 -0.2705870131139152 0)
(0.6667176957129763 -0.2507362467084702 0)
(0.7219888784323162 -0.2240268936294291 0)
(0.7753899826447729 -0.1882734122794689 0)
(0.8253679289594571 -0.1405926080096361 0)
(0.870063828951381 -0.07895300265648945 1.193369713321581e-21)
(0.912376942356274 -0.00400727588999944 1.301066385978955e-21)
(0.9536236555287465 0.0805420348935425 0)
(0.9974353031954413 0.1689385964457496 -2.317611182484611e-21)
(1.050110380209625 0.2567734595216072 -1.750867999442061e-21)
(1.123630854045127 0.3390342115860542 0)
(1.24853362465479 0.3979021228298094 0)
(0.02929841577135189 -0.3624848936786295 0)
(0.07585616019562502 -0.3641553185766812 0)
(0.1282055519596348 -0.3648282157720329 1.94816639738594e-21)
(0.1799561804109975 -0.3651569796532198 2.004682127527836e-21)
(0.232151261901832 -0.3652197677843469 0)
(0.2851431167323946 -0.3649545565176563 0)
(0.3391373190901938 -0.3641653959530716 0)
(0.3942850739620017 -0.362482496929379 0)
(0.4506819236462781 -0.3595414457880102 0)
(0.5083126307409344 -0.3546433625597435 0)
(0.5670016507583895 -0.346834850419436 0)
(0.626509167670758 -0.33503495776472 0)
(0.6859293073037479 -0.3177357228897386 0)
(0.7438965675353857 -0.2939251576870733 0)
(0.8004196665105695 -0.2614183860666847 0)
(0.8551604993989819 -0.2174575170405339 0)
(0.9059264803923684 -0.1607273906667365 1.081894922631286e-21)
(0.9498740742826155 -0.0924593801310751 1.18494748921392e-21)
(0.99016255586117 -0.01713545208905303 0)
(1.029945967989894 0.0654794874565016 -4.92805403814011e-21)
(1.072924172682441 0.149328365887077 -3.784810822663983e-21)
(1.129020132955909 0.2265730800703361 0)
(1.225503500627152 0.2838524870370827 0)
(0.02933468652975416 -0.4169810913823132 0)
(0.07636724360029996 -0.4184912248935667 0)
(0.1286833241143317 -0.4195945416895671 1.192729546907026e-21)
(0.1804812278007568 -0.4207435215145037 1.215523139821699e-21)
(0.2328162240803236 -0.4220743093630562 0)
(0.2860424744900832 -0.4235548116306871 0)
(0.3404030932083677 -0.4250567590817517 0)
(0.3957482753591738 -0.4261705851037974 0)
(0.4519559388983772 -0.4260786033100749 0)
(0.5091915913571234 -0.4238158858869793 0)
(0.567751598651096 -0.4184060626102583 0)
(0.6280294506321181 -0.4086528209531778 0)
(0.6871093191093722 -0.3916988856283592 0)
(0.7423742215725396 -0.3659005041056688 0)
(0.7977704627648249 -0.3278779940953144 0)
(0.8521729351815328 -0.2717031806002489 0)
(0.9025704806458283 -0.1922353843931189 0)
(0.9525135508791374 -0.09551468559920109 0)
(0.998618884472406 0.003947733739716932 0)
(1.033594076715435 0.08425149706473084 -4.043000455324771e-21)
(1.067447508594123 0.1496481899041384 -2.558683176571302e-21)
(1.11190305348735 0.2000264216866288 0)
(1.179608598245063 0.2298989460675631 0)
(0.02933823534998564 -0.4748314211719366 0)
(0.0759307936561274 -0.4755593854509864 0)
(0.1272880502210251 -0.4767115514391819 0)
(0.1781996682469928 -0.4780088833075403 -1.71502788823535e-21)
(0.2296514425926845 -0.4795485027477124 -1.757175832122278e-21)
(0.2820771325908972 -0.4811740580854669 0)
(0.3354973865395502 -0.4824577798602737 0)
(0.3891568208235827 -0.4814715976475989 0)
(0.4441329147288393 -0.4789098907550717 0)
(0.501759176856171 -0.4738242627138894 0)
(0.5636757907772092 -0.4647944675455043 0)
(0.6326844339096359 -0.4490134745141212 0)
(0.6773573545169723 -0.4202499167205582 0)
(0.7195930620237562 -0.3771385835364836 0)
(0.6552473062386487 -0.2857515290227557 0)
(0.4760921018194108 -0.1925568779360834 0)
(0.5834595737559407 -0.2429626106801484 0)
(0.8081437991593503 -0.2097619934319397 0)
(1.099236020795458 -0.1094611377499742 4.639269241448536e-20)
(1.404472380330727 0.07643840670498527 2.522657400399773e-20)
(1.508209170324148 0.1934240638486378 0)
(1.282905674734682 0.2130373634869932 0)
(1.206945254116921 0.1916454617086593 0)
(0.02949449025936218 -0.514190383866837 0)
(0.07543621909087871 -0.5139810884743673 0)
(0.1260647827049081 -0.5149490193860111 0)
(0.1770474697503723 -0.5159917451923729 -1.233094950338286e-21)
(0.2296458927080243 -0.5173655576134314 -1.303256114560979e-21)
(0.285558269202117 -0.5190353888735082 -1.598952641735055e-21)
(0.3444594850621131 -0.5190217540526033 -2.792358799612402e-21)
(0.3838402483147267 -0.5181078057105629 0)
(0.4647018798999862 -0.5226283132294267 0)
(0.5399578556841009 -0.5284507194945346 -2.999620277990441e-21)
(0.5976271062403532 -0.5307554516151186 -1.617438565895813e-21)
(0.6226059327282658 -0.5186917110632433 0)
(0.6102033302310199 -0.403584095358607 1.67585260226199e-20)
(0.5152837381227686 -0.2789646101377054 1.019455875913404e-20)
(0.4509805711320662 -0.1393915666192162 8.230518353894474e-21)
(0.5661876930475997 -0.2685339102205396 0)
(0.7072211246643557 -0.5103810488523268 0)
(0.8057816652252002 -0.5386090494283349 0)
(0.9483599069216022 -0.4759369311157409 8.801173247923443e-21)
(1.128832912682767 -0.2916123196607229 3.588392785448093e-20)
(1.418871414906627 0.01952695193967408 2.784726204518205e-20)
(1.638642186128055 0.2529846679682213 0)
(1.85322697658904 0.234778352114937 0)
(0.03520232295361087 -0.5768808017264008 0)
(0.07806948722143973 -0.5737292591169157 0)
(0.1351494969056461 -0.5798630835349127 0)
(0.1879196805930419 -0.5867461492634485 0)
(0.2436046849278446 -0.5975897191100774 0)
(0.301203775972737 -0.6141536965834241 5.62812476440729e-22)
(0.367549764442078 -0.6073194247241404 -1.487635013580116e-20)
(0.4466232543401869 -0.6029523959446587 0)
(0.5264267552824533 -0.6028285607758598 0)
(0.596169923743625 -0.5965117009189607 -4.287108875074783e-21)
(0.647789342156244 -0.5686999400190517 -5.624350545257298e-21)
(0.6761853285046646 -0.5021275727825251 0)
(0.6706872019748248 -0.3643277700629545 9.48484842055641e-21)
(0.6756610799897361 -0.2493487274670126 1.685382203177667e-20)
(0.7457197314889458 -0.2600859101834387 8.267119590856701e-21)
(0.8266846463534542 -0.3778233903728349 0)
(0.8434647951450917 -0.5468105552484859 0)
(0.8505884910905352 -0.5978497966726786 0)
(0.892729489746981 -0.5218527189978401 0)
(0.9824041287766168 -0.3613295922924367 1.886594773836667e-20)
(1.136371163045407 -0.2216619706239109 1.60467969506415e-20)
(1.379706047103032 -0.1066246236603212 0)
(1.676118994068642 -0.0691930424080022 0)
(0.0241035145320205 -0.63013976998923 0)
(0.06532323397980448 -0.6312823699485778 0)
(0.1236455232734064 -0.6371978859742604 0)
(0.1820268970326162 -0.6434965396505558 0)
(0.2450110760537429 -0.6554827206832979 0)
(0.3123842225894228 -0.6711069971046456 0)
(0.3854652381219529 -0.6798959180016254 0)
(0.4629327537423822 -0.684396458130677 0)
(0.5386818322860661 -0.6812395988941297 0)
(0.6070217771560068 -0.6640297600837543 0)
(0.6651213754164379 -0.6193480146724153 0)
(0.7106367692704867 -0.5362800055475017 0)
(0.7556651344971104 -0.4163271245293194 0)
(0.8208666468761007 -0.3253109776735443 0)
(0.8975525514162511 -0.3186886685643156 0)
(0.9578817310175348 -0.3825305369929721 0)
(0.9671714007169365 -0.4860451440220443 0)
(0.9259833021468864 -0.5503968392839067 0)
(0.8903522124830209 -0.5371460652969224 0)
(0.9168164943996221 -0.4750031458586687 0)
(1.02334022467788 -0.4015544402517313 0)
(1.198704201412067 -0.3449935808259481 0)
(1.452245730537481 -0.317803143685317 0)
(0.02021252138863625 -0.6670361625167114 9.23518335274697e-38)
(0.06220670488777525 -0.6831211102491889 0)
(0.1157399263106909 -0.6929385340840616 0)
(0.1715746253126838 -0.7056075380180366 0)
(0.2320506325616635 -0.723694917124339 0)
(0.2975059192070238 -0.7439173599776716 0)
(0.3668676162382835 -0.7598283680142367 0)
(0.4374421367440994 -0.7658615351434909 0)
(0.5054888098341612 -0.7578699199850015 0)
(0.5680604148741417 -0.733678555096366 0)
(0.6250207837189083 -0.6806607448574423 0)
(0.6769056465142467 -0.5904461681251811 0)
(0.7280264784617761 -0.483487636900903 0)
(0.7892502567739754 -0.4016206199637404 0)
(0.8512589491869388 -0.3831912192309386 0)
(0.88884361263133 -0.4229589507835231 0)
(0.8874049259115152 -0.4837537924328383 0)
(0.8497640672201064 -0.529188250517159 0)
(0.8222181890398914 -0.5435386996722122 0)
(0.8493564362678001 -0.5369064318979534 0)
(0.9442180181053362 -0.5280974333913248 0)
(1.096618887169754 -0.5264540392026962 0)
(1.327967425027454 -0.5319019717533983 0)