# p  POINT_DATA 605
# x y z  p
0.3162170774755434 0.04790640206486545 0.01437477081120684 95998.99446430574
0.3173337375512328 0.04799895999999999 0.0146 96002.36674451128
0.3162170774755435 0.04790640206486545 0.0002252291887931617 95998.99446430575
0.3173337375512328 0.04799895999999999 0.001381053457329086 96002.3667445113
0.3173337375512328 0.04799895999999999 0 96002.36674451128
0.31599948 0.04781938462507628 0.0146 95998.93971045034
0.31599948 0.04781938462507628 0.01416302378653433 95998.93971045034
0.31599948 0.04781938462507627 0 95998.93971045034
0.1396521739130435 0.1106496515006017 0 96100.17962755954
0.139025793028856 0.111178956728368 0.01387966198318439 96094.10940936994
0.139025793028856 0.111178956728368 0.000720338016815607 96094.10940936991
0.1396521739130435 0.1106496515006017 0.01327412217739161 96100.17962755957
0.1396521739130435 0.1106496515006017 0.0146 96100.17962755957
0.1340212375247961 0.1118086076190476 0.0146 96096.21924690745
0.1340212375247961 0.1118086076190476 0.008124423153515529 96096.21924690745
0.1340212375247961 0.1118086076190476 0 96096.21924690742
0.1385958554391481 0.1107467746597097 0 96101.25949455741
0.1385958554391481 0.1107467746597097 0.0146 96101.25949455742
0.1523478260869565 0.1083075353594545 0 96106.12637024862
0.1502891007558464 0.1097391347613638 0.01223246586922346 96088.5073406507
0.1502891007558464 0.1097391347613638 0.00236753413077654 96088.5073406507
0.1523478260869565 0.1083075353594545 0.01059467659692883 96106.12637024862
0.1523478260869565 0.1083075353594545 0.0146 96106.12637024862
0.1404705569729259 0.1109859522098864 0.01365885948113526 96092.562778522
0.1404705569729259 0.1109859522098864 0.0009411405188647373 96092.56277852198
0.1492415234720388 0.1086860886252883 0 96108.55101462777
0.1492415234720388 0.1086860886252883 0.0146 96108.55101462777
0.1650434782608695 0.1062127769593678 0 96110.1501679724
0.161181869093913 0.107926839013378 0.007299999999999999 96083.44371623165
0.1650434782608695 0.1062127769593678 0.008198215106978764 96110.1501679724
0.1650434782608695 0.1062127769593678 0.0146 96110.1501679724
0.1554460644867712 0.1086941949394342 0.01103702584021308 96084.84815902292
0.1554460644867712 0.1086941949394342 0.003562974159786922 96084.84815902292
0.1602046539823431 0.1069445223735852 0 96112.19112712092
0.160204653982343 0.1069445223735852 0.0146 96112.19112712094
0.1777391304347826 0.1042436180097236 0 96112.98943608736
0.1777391304347826 0.1042436180097236 0.005945442858772312 96112.98943608737
0.1714530318142191 0.1050272693285925 0.007323662195450678 96085.74913088312
0.1777391304347826 0.1042436180097236 0.0146 96112.98943608734
0.1712572810801393 0.1052929199241782 0 96114.428945509
0.1712572810801393 0.1052929199241782 0.0146 96114.428945509
0.1904347826086956 0.10243242715578 0 96113.32999539103
0.1904347826086956 0.10243242715578 0.003873390476862264 96113.32999539102
0.1875503531276851 0.1019461656716773 0.003317093903162047 96105.32721789015
0.1875503531276851 0.1019461656716773 0.01128290609683795 96105.32721789017
0.1904347826086956 0.10243242715578 0.0146 96113.32999539105
0.1823419488720684 0.1036735254365848 0 96115.3328436849
0.1813410638263829 0.1026674152943489 0.007299999999999998 96104.69565120933
0.1823419488720684 0.1036735254365848 0.0146 96115.3328436849
0.2031304347826087 0.1008739957893302 0 96111.89275256344
0.2031304347826087 0.1008739957893302 0.002090501932640457 96111.89275256344
0.2018325313145456 0.1003513572374538 0.001492588988272596 96109.74579501916
0.2018325313145456 0.1003513572374538 0.0131074110117274 96109.74579501915
0.2031304347826087 0.1008739957893302 0.0146 96111.89275256341
0.1935154771869593 0.1021434553661978 0 96114.36545944527
0.1925302410650306 0.1011530758425525 0.00240977722478523 96110.61368842295
0.1925302410650306 0.1011530758425525 0.01219022277521476 96110.61368842298
0.1935154771869593 0.1021434553661978 0.0146 96114.36545944528
0.2158260869565218 0.09975781889565974 0 96110.24074227037
0.2158260869565218 0.09975781889565974 0.0008135647252075143 96110.24074227035
0.2153803798958707 0.09949471195898725 0.0005125631197487498 96109.82761000568
0.2153803798958707 0.09949471195898725 0.01408743688025125 96109.82761000573
0.2158260869565218 0.09975781889565973 0.0146 96110.2407422704
0.2048465464341063 0.1007717486667525 0 96112.2372381008
0.2041884723948093 0.1001102391676017 0.001216743254030618 96111.1837993604
0.2041884723948093 0.1001102391676017 0.01338325674596938 96111.18379936038
0.2048465464341063 0.1007717486667525 0.0146 96112.2372381008
0.2285217391304348 0.0995589893128703 0 96109.78420327639
0.2285217391304348 0.0995589893128703 0.0005860981886379985 96109.78420327637
0.2282259596739675 0.09934400166131549 0.0003401463749373925 96109.63799022255
0.2282259596739675 0.09934400166131549 0.01425985362506261 96109.63799022255
0.2285217391304348 0.0995589893128703 0.0146 96109.78420327637
0.2165249019957274 0.09974914128171741 0 96110.26660296541
0.2162306401064399 0.09945334320524314 0.0004652361224058278 96110.06218479168
0.2162306401064399 0.09945334320524314 0.01413476387759417 96110.06218479169
0.2165249019957274 0.09974914128171741 0.0146 96110.26660296542
0.2412173913043479 0.1004035421494083 0 96109.3611898465
0.2412173913043479 0.1004035421494083 0.001552289969469378 96109.3611898465
0.2404399485622889 0.09982817945862155 0.0008940591533679165 96108.97809802313
0.2404399485622889 0.09982817945862155 0.01370594084663208 96108.97809802313
0.2412173913043479 0.1004035421494083 0.0146 96109.36118984652
0.2290488494578267 0.09957654018954386 0 96109.72734548431
0.2288287160693023 0.09935525759990595 0.0003530234796976346 96109.57346671587
0.2288287160693023 0.09935525759990595 0.01424697652030237 96109.57346671585
0.2290488494578267 0.09957654018954386 0.0146 96109.72734548432
0.2539130434782608 0.1017987750740537 0 96108.10875366617
0.2539130434782608 0.1017987750740537 0.003148474986932377 96108.10875366615
0.2522986668327621 0.1006694825555772 0.001856533142323572 96106.92554994195
0.2522986668327621 0.1006694825555771 0.01274346685767642 96106.92554994195
0.2539130434782608 0.1017987750740537 0.0146 96108.10875366617
0.2426681692745421 0.1005050298172834 0 96109.06576887633
0.2420931561398556 0.09992701484021801 0.001007129560833834 96108.39831012415
0.2420931561398556 0.09992701484021801 0.01359287043916617 96108.39831012416
0.2426681692745421 0.1005050298172834 0.0146 96109.06576887635
0.2666086956521739 0.1034431091011259 0 96105.34283867362
0.2666086956521739 0.1034431091011259 0.00502963854848191 96105.34283867362
0.2638568547406859 0.1018128849266845 0.003164617048211207 96102.21566055735
0.2638568547406859 0.1018128849266845 0.01143538295178879 96102.21566055735
0.2666086956521739 0.1034431091011259 0.0146 96105.34283867362
0.2570043816377181 0.1021541545119536 0 96107.10408399461
0.2559387417722881 0.1010829514989785 0.002329553038131401 96104.62603454602
0.2559387417722881 0.1010829514989784 0.01227044696186859 96104.62603454603
0.2570043816377182 0.1021541545119536 0.0146 96107.10408399462
0.2793043478260869 0.1054818990517024 0 96097.60889731982
0.2793043478260869 0.1054818990517024 0.007362070585728582 96097.60889731982
0.2727113412157325 0.1035440160112232 0.007206014132697475 96091.79279339001
0.2793043478260869 0.1054818990517024 0.0146 96097.60889731983
0.2718386918296132 0.104303977343198 0 96102.55756305058
0.2718386918296132 0.104303977343198 0.0146 96102.55756305056
0.285941860015846 0.1073766885053605 0.007411046339407631 96079.46646699672
0.292 0.1076195269399875 0 96083.21463293675
0.292 0.1076195269399875 0.009807575954704004 96083.21463293675
0.292 0.1076195269399875 0.0146 96083.21463293675
0.2870558154671971 0.1068386120886099 0 96092.1594772782
0.2870558154671971 0.1068386120886099 0.0146 96092.1594772782
0.05078260869565217 0.1237290729836219 0 96094.65559222455
0.05030378476219827 0.1240892135204592 0.01404935247652801 96090.65467249682
0.05030378476219825 0.1240892135204592 0.0005506475234720127 96090.65467249684
0.05078260869565217 0.1237290729836218 0.01363734175134611 96094.65559222453
0.05078260869565217 0.1237290729836218 0.0146 96094.65559222453
0.04045181250754347 0.1245705371428571 0.0146 96091.95902303922
0.04045181250754347 0.1245705371428571 0.002719584383674993 96091.95902303924
0.04045181250754337 0.1245705371428571 0 96091.95902303922
0.04997864555632615 0.1237623769331043 0 96094.92903721052
0.04997864555632618 0.1237623769331043 0.0146 96094.92903721052
0.06347826086956521 0.1224853602203441 0 96097.80540206839
0.06224638114233487 0.1233322264168412 0.01318333831368511 96088.44935107057
0.06224638114233487 0.1233322264168412 0.00141666168631489 96088.44935107057
0.06347826086956521 0.1224853602203441 0.01221449998514006 96097.80540206839
0.06347826086956521 0.1224853602203441 0.0146 96097.80540206838
0.05132306779603332 0.1240272565886105 0.01397847203456168 96090.27427115469
0.05132306779603334 0.1240272565886106 0.0006215279654383483 96090.27427115469
0.06151759850604802 0.1225996391881536 0 96098.62165812947
0.06151759850604801 0.1225996391881536 0.0146 96098.62165812946
0.07617391304347826 0.1210677292471715 0 96100.25634790282
0.07398124203137427 0.1223664193439409 0.01207842833608041 96085.71060994474
0.07398124203137425 0.1223664193439409 0.002521571663919594 96085.71060994473
0.07617391304347826 0.1210677292471715 0.01059269098128171 96100.25634790283
0.07617391304347826 0.1210677292471716 0.0146 96100.25634790282
0.06494841854268463 0.1230927045466089 0.01290931867591267 96087.34398967543
0.06494841854268463 0.1230927045466089 0.001690681324087326 96087.34398967546
0.07293899565086015 0.1213187319410127 0 96101.79892670919
0.07293899565086015 0.1213187319410127 0.0146 96101.79892670921
0.08886956521739131 0.1194368850605735 0 96102.43130653921
0.08540986778213341 0.1210927784395122 0.007299999999999998 96082.90576884369
0.08886956521739131 0.1194368850605735 0.008726960169972271 96102.43130653922
0.08886956521739131 0.1194368850605735 0.0146 96102.43130653922
0.07899875229874931 0.121730950881512 0.01135143485643828 96083.72108226076
0.07899875229874931 0.121730950881512 0.003248565143561714 96083.72108226076
0.08428522729497173 0.1199622667934644 0 96104.32986121383
0.08428522729497173 0.1199622667934644 0.0146 96104.32986121383
0.1015652173913043 0.1175747054019779 0 96103.71368361874
0.09512570501641539 0.1188779637069423 0.007264853589625907 96082.2321828636
0.1015652173913043 0.1175747054019779 0.006596575186669137 96103.71368361876
0.1015652173913043 0.1175747054019779 0.0146 96103.71368361874
0.09551638984408406 0.1184901318354463 0 96105.91980514381
0.09551638984408409 0.1184901318354463 0.0146 96105.91980514381
0.1142608695652174 0.1155403426836143 0 96102.59875904954
0.1142608695652174 0.1155403426836143 0.004269208025402879 96102.59875904954
0.1082616800609014 0.1156694731261736 0.007433644023345566 96095.32675028418
0.1142608695652174 0.1155403426836143 0.0146 96102.59875904955
0.1065940522740212 0.1168636954145356 0 96105.88291299177
0.1065940522740212 0.1168636954145355 0.0146 96105.88291299177
0.1269565217391304 0.1132617132013065 0 96098.96082987197
0.1269565217391304 0.1132617132013065 0.001662392936851681 96098.96082987197
0.125868146643533 0.1129026645509179 0.001251631359937052 96097.87193096551
0.125868146643533 0.1129026645509179 0.01334836864006295 96097.87193096551
0.1269565217391304 0.1132617132013065 0.0146 96098.960829872
0.1175470404591718 0.1151119338899118 0 96103.56896179909
0.1165459535671849 0.1141056208476406 0.002627846602262585 96100.65396249406
0.1165459535671849 0.1141056208476406 0.01197215339773742 96100.65396249408
0.1175470404591718 0.1151119338899118 0.0146 96103.56896179909
0.1282550730526617 0.1131139379887933 0 96099.183770535
0.127745615967809 0.112601821295359 0.0009074583629803578 96098.765497445
0.1282550730526617 0.1131139379887933 0.0146 96099.18377053503
0.127745615967809 0.112601821295359 0.01369254163701964 96098.76549744501
0.01269565217391304 0.1258422152153674 0 96094.04801933643
0.01269565217391304 0.1258422152153674 0.001454834852677358 96094.04801933642
0.01190152196348368 0.1253688130911421 0.000913249741993761 96093.71155617079
0.01190152196348368 0.1253688130911421 0.01368675025800624 96093.71155617081
0.01269565217391304 0.1258422152153674 0.0146 96094.04801933642
0.000846929502656302 0.125421888020817 0.01362603107194525 96093.72362792435
0 0.1259353728102402 0.0146 96094.07646187284
0.0008469295026563003 0.125421888020817 0.0009739689280547468 96093.72362792432
0 0.1259353728102402 0.001561409715248567 96094.07646187283
0 0.1259353728102402 0 96094.07646187283
0.001351799787659819 0.1259293939691227 0 96094.08353234718
0.001351799787659821 0.1259293939691227 0.0146 96094.08353234721
0.02539130434782608 0.1254810906470236 0 96093.53894422398
0.02539130434782608 0.1254810906470236 0.001041698368262278 96093.53894422397
0.02482151315647713 0.125143302915554 0.0006552598700512934 96093.31482147526
0.02482151315647713 0.125143302915554 0.01394474012994871 96093.31482147526
0.02539130434782608 0.1254810906470236 0.0146 96093.53894422395
0.01393988973583265 0.125821270217344 0 96094.07037456601
0.01347256052929307 0.1253515013298086 0.0008934446086870317 96093.7504171965
0.01347256052929307 0.1253515013298086 0.01370655539131297 96093.75041719648
0.01393988973583265 0.125821270217344 0.0146 96094.07037456603
0.03808695652173913 0.1247680429366531 0 96092.2797608664
0.03808695652173913 0.1247680429366531 0.0002259520853834458 96092.2797608664
0.03796556300409537 0.1246925643924694 0.0001396025452903241 96092.2425738959
0.03796556300409537 0.1246925643924694 0.01446039745470968 96092.24257389588
0.03808695652173913 0.1247680429366531 0.0146 96092.2797608664
0.02627017200367128 0.1254539929063742 0 96093.56517257134
0.0259274071022182 0.1251094386089142 0.0006165181675509346 96093.37991503658
0.0259274071022182 0.1251094386089142 0.01398348183244907 96093.37991503655
0.02627017200367128 0.1254539929063742 0.0146 96093.56517257131
0.03827572920570924 0.1247602953101293 0 96092.28613255556
0.03819809780877654 0.1246822586403373 0.0001278124800930219 96092.25941308751
0.03827572920570924 0.1247602953101293 0.0146 96092.28613255557
0.03819809780877654 0.1246822586403373 0.01447218751990698 96092.25941308751
0.2979998699999999 0.1092168294873026 0 96072.28544622645
0.2970587374194078 0.1098067863019062 0.01230986110088314 96072.8401741766
0.2970587374194078 0.1098067863019062 0.002290138899116854 96072.8401741766
0.2979998699999999 0.1092168294873026 0.01163493420388511 96072.28544622645
0.2979998699999999 0.1092168294873026 0.0146 96072.28544622644
0.2932920006221691 0.1090604779287642 0.01145606370076863 96075.19135813053
0.2932920006221691 0.1090604779287642 0.003143936299231366 96075.1913581305
0.2966320926891606 0.1088992983098132 0 96078.11854818685
0.2966320926891606 0.1088992983098132 0.0146 96078.11854818686
0.30399974 0.1109884217866762 0 96067.31657126558
0.3037321150058517 0.1112393600663287 0.01394876507081548 96067.96605526691
0.3037321150058516 0.1112393600663287 0.0006512349291845143 96067.96605526692
0.30399974 0.1109884217866762 0.01366168474521967 96067.31657126555
0.30399974 0.1109884217866762 0.0146 96067.31657126555
0.2987261441635127 0.1102637975332101 0.01283269457716811 96070.67598696532
0.2987261441635127 0.1102637975332101 0.001767305422831895 96070.67598696532
0.3035648719427457 0.1108836283280237 0 96068.49067504138
0.3035648719427457 0.1108836283280237 0.0146 96068.49067504135
0.304197293908742 0.111388403671209 0.01411927507302112 96067.48384001611
0.304197293908742 0.111388403671209 0.0004807249269788746 96067.4838400161
0.3065322489289932 0.1118086076190476 0.0146 96066.54266407326
0.3065322489289932 0.1118086076190476 0.006162571916274961 96066.54266407326
0.3065322489289932 0.1118086076190476 0 96066.54266407326
0.30999961 0.1128851532016701 0 96065.1577901227
0.30999961 0.1128851532016701 0.001231597892541636 96065.15779012271
0.3097252419126757 0.1123921979625075 0.0006676434780977671 96065.26355160658
0.3097252419126757 0.1123921979625075 0.01393235652190223 96065.26355160659
0.30999961 0.1128851532016701 0.0146 96065.15779012271
0.31599948 0.1140651510297963 0 96063.75521628944
0.31599948 0.1140651510297963 0.002581548012427556 96063.75521628944
0.3154009828085532 0.1130816316974764 0.001456374720639652 96064.15273782812
0.3154009828085532 0.1130816316974764 0.01314362527936035 96064.15273782809
0.31599948 0.1140651510297963 0.0146 96063.7552162894
0.3105367797209356 0.1129511860617314 0 96065.22515296783
0.3103068326385754 0.1124620807212345 0.0007475912850113245 96065.40841631497
0.3103068326385754 0.1124620807212345 0.01385240871498867 96065.40841631498
0.3105367797209356 0.1129511860617314 0.0146 96065.22515296785
0.3301047705263158 0.0516008175019549 0 96057.89589830453
0.3285342595734551 0.04941989848115968 0.001625592884385292 96049.06243000383
0.3301047705263158 0.05160081750195489 0.004120624505129215 96057.89589830453
0.3285342595734552 0.04941989848115969 0.01297440711561471 96049.06243000383
0.3301047705263158 0.0516008175019549 0.0146 96057.89589830454
0.3442100610526316 0.05807427122395684 0 96054.98895450446
0.3386247340082709 0.05570749838843561 0.005781219089073576 96055.40268009652
0.3386247340082709 0.05570749838843561 0.008818780910926435 96055.40268009654
0.3442100610526316 0.05807427122395684 0.01152643443104202 96054.98895450444
0.3442100610526316 0.05807427122395684 0.0146 96054.98895450444
0.3366706797495692 0.05482030498848502 0.007803807147349963 96056.73556835295
0.3366706797495692 0.05482030498848502 0.006796192852650049 96056.73556835295
0.3383168781366205 0.05542896212360907 0 96053.68110415267
0.3383168781366205 0.05542896212360907 0.0146 96053.68110415268
0.3454131969369289 0.05967233800944526 0.01335466698981001 96054.68190076828
0.3528908521677852 0.06076088952380953 0.0146 96049.6158717795
0.3454131969369289 0.05967233800944526 0.001245333010189987 96054.68190076828
0.3528908521677852 0.06076088952380953 0.00898524919035085 96049.6158717795
0.3528908521677852 0.06076088952380953 0 96049.61587177952
0.3583153515789473 0.06240653017620312 0 96046.42955932282
0.3574408861784602 0.06155207250520259 0.000905135191883633 96044.93794978059
0.3583153515789473 0.06240653017620312 0.001882658377020606 96046.42955932282
0.3574408861784603 0.0615520725052026 0.01369486480811636 96044.93794978058
0.3583153515789473 0.06240653017620313 0.0146 96046.42955932279
0.372420642105263 0.06738492389445133 0 96052.9151935207
0.3690470886595724 0.06381315216514868 0.003491872798734056 96046.08675645631
0.372420642105263 0.06738492389445133 0.007578078348649389 96052.91519352069
0.3690470886595724 0.06381315216514868 0.01110812720126594 96046.08675645632
0.372420642105263 0.06738492389445133 0.0146 96052.91519352069
0.3596237503380952 0.06194467887732432 0.001354287729694094 96045.30584731595
0.3612972911496361 0.06345883484967085 0 96048.11186498037
0.3596237503380952 0.06194467887732433 0.0132457122703059 96045.30584731589
0.3612972911496361 0.06345883484967087 0.0146 96048.11186498037
0.3865259326315789 0.07325441658971235 0 96055.39337926412
0.3863200256377942 0.0733365222437186 0.0002131286912274554 96055.2658226036
0.3863200256377942 0.0733365222437186 0.01438687130877254 96055.26582260359
0.3865259326315789 0.07325441658971237 0.01429294017192881 96055.3933792641
0.3865259326315789 0.07325441658971235 0.0146 96055.3933792641
0.3754224225377061 0.07080692246588488 0.01149293926758168 96053.06409693415
0.3754224225377061 0.07080692246588488 0.003107060732418323 96053.06409693416
0.3860147185621696 0.0730602920324392 0 96055.23861965544
0.3860147185621696 0.0730602920324392 0.0146 96055.23861965543
0.3866639432593689 0.07339795228914232 0.01445714897811033 96055.41724432541
0.3870799268680881 0.07352281904761905 0.0146 96055.30853930936
0.3866639432593689 0.07339795228914232 0.0001428510218896689 96055.41724432542
0.3870799268680881 0.07352281904761905 0.0005734242650261662 96055.30853930938
0.3870799268680881 0.07352281904761905 0 96055.30853930938
0.4006312231578947 0.07963308982144063 0 96058.46691307271
0.3977748343715418 0.07610717080670015 0.002956569820589418 96050.90797132839
0.4006312231578947 0.07963308982144063 0.006990318598089635 96058.4669130727
0.3977748343715418 0.07610717080670015 0.01164343017941058 96050.90797132842
0.4006312231578947 0.07963308982144063 0.0146 96058.46691307271
0.4038203843813549 0.08339931698829794 0.01129898654156396 96058.5443277657
0.4133479547612217 0.08628474857142857 0.0146 96059.51537897254
0.4038203843813549 0.08339931698829794 0.003301013458436036 96058.54432776572
0.4133479547612217 0.08628474857142857 0.01316274067961834 96059.51537897253
0.4133479547612217 0.08628474857142855 0 96059.51537897254
0.4147365136842106 0.08708234807650178 0 96059.74050044772
0.4143590485459618 0.08662626464889175 0.0003907038290456183 96060.09631481725
0.4147365136842106 0.08708234807650178 0.0009124758722686467 96059.7405004477
0.4143590485459618 0.08662626464889175 0.01420929617095438 96060.09631481725
0.4147365136842106 0.08708234807650178 0.0146 96059.7405004477
0.4288418042105263 0.09486027228725243 0 96064.89611133032
0.424536959446521 0.09017960811981424 0.007299999999999999 96050.64957835514
0.4288418042105263 0.09486027228725243 0.009810636081122502 96064.89611133031
0.4288418042105263 0.09486027228725243 0.0146 96064.89611133031
0.4156237500305896 0.08708748621815236 0.0009183540482888644 96057.59656264505
0.4169702506263464 0.08830574866193237 0 96060.69531164515
0.4156237500305895 0.08708748621815238 0.01368164595171113 96057.59656264508
0.4169702506263464 0.08830574866193239 0.0146 96060.69531164515
0.430662442155177 0.09739943424055424 0.01271550751526126 96066.55216942995
0.4342350796662634 0.09904667809523809 0.0146 96068.31770396083
0.430662442155177 0.09739943424055424 0.001884492484738744 96066.55216942995
0.4342350796662634 0.09904667809523809 0.005582431748346842 96068.31770396083
0.4342350796662634 0.09904667809523809 0 96068.31770396084
0.442947094736842 0.1062539397522996 0 96076.65041150087
0.4399911666292208 0.1017210892402287 0.003059600246500015 96077.10971653114
0.442947094736842 0.1062539397522996 0.008245306479461596 96076.65041150086
0.4399911666292208 0.1017210892402287 0.01154039975349999 96077.10971653112
0.442947094736842 0.1062539397522996 0.0146 96076.65041150086
0.4452922763009097 0.1096867766801292 0.01217256677758545 96075.55170128267
0.4489475131159446 0.1118086076190476 0.0146 96077.74661835314
0.4452922763009097 0.1096867766801292 0.002427433222414552 96075.55170128267
0.4489475131159446 0.1118086076190476 0.00621086876384817 96077.74661835315
0.4489475131159446 0.1118086076190476 0 96077.74661835314
0.3301047705263158 0.1151621111778578 0 96063.43486798562
0.3301047705263158 0.1151621111778578 0.003836500731906126 96063.4348679856
0.3278809717613446 0.1138206160254501 0.002301793210710998 96064.50946173168
0.3278809717613446 0.1138206160254501 0.012298206789289 96064.50946173165
0.3301047705263158 0.1151621111778578 0.0146 96063.4348679856
0.3187274488523044 0.1142767699139896 0 96064.035627912
0.3176675700432823 0.113317831943922 0.001726594329020347 96064.80957411448
0.3176675700432823 0.113317831943922 0.01287340567097965 96064.80957411446
0.3187274488523044 0.1142767699139896 0.0146 96064.03562791197
0.3442100610526316 0.1174215370277252 0 96063.32130574327
0.3442100610526316 0.1174215370277252 0.006421346334330127 96063.32130574327
0.3404296339029446 0.1152289940878121 0.007300000000000001 96066.45204855349
0.3442100610526316 0.1174215370277252 0.0146 96063.32130574327
0.3346249611218826 0.1158983038721794 0 96064.12546364375
0.3329939301080184 0.1144226091453499 0.002990489973542888 96066.41255465688
0.3329939301080184 0.1144226091453499 0.01160951002645711 96066.41255465685
0.3346249611218826 0.1158983038721794 0.0146 96064.12546364372
0.3583153515789473 0.1215212548205172 0 96065.55487144699
0.3518484556992256 0.1199134838346401 0.007502097716035752 96073.72493153397
0.3583153515789473 0.1215212548205172 0.01111153676855024 96065.55487144701
0.3583153515789473 0.1215212548205172 0.0146 96065.55487144701
0.3533882287814233 0.1201126641355735 0 96065.40899126197
0.3533882287814234 0.1201126641355735 0.0146 96065.40899126197
0.3598231676757158 0.1232063225791142 0.01303930084447751 96070.02046908466
0.3598231676757158 0.1232063225791142 0.001560699155522492 96070.02046908466
0.3711139663692975 0.1245705371428571 0.0146 96062.614374975
0.3711139663692975 0.1245705371428571 0.01324749572442292 96062.614374975
0.3711139663692975 0.1245705371428571 0 96062.61437497502
0.4570523852631578 0.1207028572643548 0 96075.90377297395
0.4537527217964135 0.1147940174222924 0.003415391304744015 96084.33390686309
0.4570523852631577 0.1207028572643548 0.01017526735116476 96075.90377297395
0.4537527217964135 0.1147940174222924 0.01118460869525598 96084.33390686309
0.4570523852631577 0.1207028572643548 0.0146 96075.90377297395
0.4585076734376802 0.1232538478420987 0.01309367105850195 96074.58359026187
0.4605406057894068 0.1245705371428571 0.0146 96074.69504861097
0.4585076734376803 0.1232538478420987 0.001506328941498034 96074.58359026187
0.4605406057894069 0.1245705371428571 0.003610561554065102 96074.69504861096
0.4605406057894069 0.1245705371428571 0 96074.69504861094
0.3724206421052633 0.1248872922477245 0 96062.0029968516
0.3724206421052633 0.1248872922477245 0.0003623765922258306 96062.0029968516
0.3722474358941943 0.1247272475243003 0.0001792810064342408 96061.99072966196
0.3722474358941943 0.1247272475243003 0.01442071899356576 96061.99072966196
0.3724206421052632 0.1248872922477245 0.0146 96062.00299685159
0.386525932631579 0.1290125407076142 0 96057.38404157411
0.3865259326315789 0.1290125407076142 0.005081774815043321 96057.38404157411
0.3844160949806765 0.126479437874626 0.002183835181962808 96056.34635343033
0.3844160949806766 0.126479437874626 0.01241616481803719 96056.34635343032
0.386525932631579 0.1290125407076142 0.0146 96057.38404157409
0.3729209343916778 0.1250231825448513 0 96062.11939120466
0.3726220651970982 0.1247527770830888 0.0002084875270952211 96062.05424169365
0.3726220651970982 0.1247527770830888 0.01439151247290478 96062.05424169364
0.3729209343916778 0.1250231825448513 0.0146 96062.11939120463
0.4006312231578947 0.1353544672887904 0 96054.404039484
0.3977112421349136 0.1346905790744457 0.01157760759652648 96064.45424315924
0.3977112421349136 0.1346905790744457 0.003022392403473526 96064.45424315923
0.4006312231578947 0.1353544672887904 0.01233711405762615 96054.40403948403
0.4006312231578947 0.1353544672887904 0.0146 96054.40403948404
0.3918745671912882 0.1324932258745488 0.007300000000000001 96072.566418678
0.3964479254952499 0.1335475783052262 0 96055.92153160545
0.39644792549525 0.1335475783052262 0.0146 96055.92153160546
0.401539605374057 0.1365105970425198 0.0136597584409036 96053.86120171715
0.401539605374057 0.1365105970425198 0.000940241559096401 96053.86120171713
0.4041652671331185 0.1373324666666667 0.0146 96051.56244441333
0.4041652671331185 0.1373324666666667 0.003657992151384997 96051.56244441331
0.4041652671331186 0.1373324666666667 0 96051.56244441331
0.4684096343381398 0.134846143448793 0.00284442246082225 96070.50464881577
0.4653933156165108 0.1297859106326807 0.007300000000000006 96072.84796985402
0.4684096343381399 0.1348461434487931 0.01175557753917779 96070.50464881577
0.4695968685502012 0.1373324666666667 0.0146 96067.89926088024
0.4695968685502012 0.1373324666666667 0.01298445116384768 96067.89926088025
0.4695968685502012 0.1373324666666666 0 96067.89926088025
0.4668869145641624 0.1334684446056706 0 96070.91412646597
0.4668869145641625 0.1334684446056708 0.0146 96070.91412646597
0.4147365136842106 0.1431695537282498 0 96043.26146524213
0.4147365136842106 0.1431695537282498 0.006677788882952109 96043.26146524213
0.4122119111312214 0.139616630881276 0.002613146975234217 96044.09644077672
0.4122119111312214 0.139616630881276 0.01198685302476578 96044.09644077672
0.4147365136842106 0.1431695537282498 0.0146 96043.26146524212
0.4181646992188763 0.1469927045162547 0.0110515790218754 96042.79641105441
0.4181646992188763 0.1469927045162547 0.003548420978124599 96042.79641105441
0.4235940331800378 0.1500943961904762 0.0146 96039.22770860573
0.4235940331800378 0.1500943961904762 0.009168175898100777 96039.22770860574
0.4235940331800378 0.1500943961904762 0 96039.22770860574
0.4711576757894738 0.1394313900443064 0 96067.00193764191
0.4704939145498831 0.1379330125501058 0.0006870410843324308 96067.85830311909
0.4711576757894738 0.1394313900443064 0.002401226339353268 96067.00193764191
0.4704939145498831 0.1379330125501059 0.01391295891566758 96067.85830311909
0.4711576757894738 0.1394313900443065 0.0146 96067.00193764189
0.4747386568499783 0.1468544609452577 0.007299999999999991 96065.32540041125
0.4782940288746349 0.1500943961904762 0.0146 96062.77406642192
0.4782940288746349 0.1500943961904762 0.007386643674511283 96062.7740664219
0.478294028874635 0.1500943961904762 0 96062.7740664219
0.4288418042105263 0.1553177855877624 0 96037.7290145216
0.4288418042105263 0.1553177855877624 0.005975701797921742 96037.72901452158
0.4269576450290068 0.1517991116404225 0.001950241577716048 96038.55456279591
0.4269576450290068 0.1517991116404225 0.01264975842228395 96038.55456279589
0.4288418042105263 0.1553177855877624 0.0146 96037.72901452158
0.4320620595037631 0.1599427614013571 0.01126680192133991 96035.28822562093
0.4320620595037631 0.1599427614013571 0.003333198078660107 96035.28822562093
0.4355116785900319 0.1628563257142857 0.0146 96034.76745371154
0.4355116785900319 0.1628563257142857 0.006903804339166365 96034.76745371154
0.4355116785900319 0.1628563257142857 0 96034.76745371154
0.4836517538869828 0.1613985620882226 0.001667721867670098 96062.26632850095