# U  POINT_DATA 605
# x y z  U_x U_y U_z
0.3162170774755434 0.04790640206486545 0.01437477081120684 0.01603788700050766 -0.003586858830157874 -1.010560528655949e-22
0.3173337375512328 0.04799895999999999 0.0146 0.05001417074393218 0.001287456570270356 -5.637560016171887e-23
0.3162170774755435 0.04790640206486545 0.0002252291887931617 0.0160378870005104 -0.003586858830158145 -1.010560528656051e-22
0.3173337375512328 0.04799895999999999 0.001381053457329086 0.05001417074393218 0.001287456570270356 -5.637560016171887e-23
0.3173337375512328 0.04799895999999999 0 0.05001417074393207 0.001287456570270401 -5.637560016171762e-23
0.31599948 0.04781938462507628 0.0146 0 0 0
0.31599948 0.04781938462507628 0.01416302378653433 0 0 0
0.31599948 0.04781938462507627 0 0 0 0
0.1396521739130435 0.1106496515006017 0 0.5979706273184621 -0.4299509251057198 0
0.139025793028856 0.111178956728368 0.01387966198318439 0.5950470288086291 -0.4335578919108272 0
0.139025793028856 0.111178956728368 0.000720338016815607 0.5950470288086289 -0.4335578919108271 0
0.1396521739130435 0.1106496515006017 0.01327412217739161 0.5979706273184623 -0.4299509251057199 0
0.1396521739130435 0.1106496515006017 0.0146 0.5979706273184622 -0.4299509251057199 0
0.1340212375247961 0.1118086076190476 0.0146 0.5703407936089125 -0.4396491337656373 0
0.1340212375247961 0.1118086076190476 0.008124423153515529 0.5703407936089125 -0.4396491337656373 0
0.1340212375247961 0.1118086076190476 0 0.5703407936089124 -0.4396491337656372 0
0.1385958554391481 0.1107467746597097 0 0.5930455454454456 -0.4311154836619196 0
0.1385958554391481 0.1107467746597097 0.0146 0.5930455454454457 -0.4311154836619197 0
0.1523478260869565 0.1083075353594545 0 0.6564595146228486 -0.4025557723944433 0
0.1502891007558464 0.1097391347613638 0.01223246586922346 0.6471280185524197 -0.4145656674554017 0
0.1502891007558464 0.1097391347613638 0.00236753413077654 0.6471280185524197 -0.4145656674554016 0
0.1523478260869565 0.1083075353594545 0.01059467659692883 0.6564595146228487 -0.4025557723944433 0
0.1523478260869565 0.1083075353594545 0.0146 0.6564595146228487 -0.4025557723944432 0
0.1404705569729259 0.1109859522098864 0.01365885948113526 0.6019022627507019 -0.4317920010718049 0
0.1404705569729259 0.1109859522098864 0.0009411405188647373 0.6019022627507017 -0.4317920010718049 0
0.1492415234720388 0.1086860886252883 0 0.6418661514531379 -0.4075748070935131 0
0.1492415234720388 0.1086860886252883 0.0146 0.641866151453138 -0.407574807093513 0
0.1650434782608695 0.1062127769593678 0 0.7102122840365825 -0.3683875843147933 0
0.161181869093913 0.107926839013378 0.007299999999999999 0.6947464481365183 -0.3905427266109079 0
0.1650434782608695 0.1062127769593678 0.008198215106978764 0.7102122840365827 -0.3683875843147933 0
0.1650434782608695 0.1062127769593678 0.0146 0.7102122840365828 -0.3683875843147933 0
0.1554460644867712 0.1086941949394342 0.01103702584021308 0.6713348827685306 -0.4048577669655409 0
0.1554460644867712 0.1086941949394342 0.003562974159786922 0.6713348827685306 -0.4048577669655409 0
0.1602046539823431 0.1069445223735852 0 0.6876604141055083 -0.37904071122967 0
0.160204653982343 0.1069445223735852 0.0146 0.6876604141055082 -0.3790407112296701 0
0.1777391304347826 0.1042436180097236 0 0.7538616495280719 -0.3232293457539252 0
0.1777391304347826 0.1042436180097236 0.005945442858772312 0.753861649528072 -0.3232293457539254 0
0.1714530318142191 0.1050272693285925 0.007323662195450678 0.7426853617267879 -0.3633323465177788 0
0.1777391304347826 0.1042436180097236 0.0146 0.7538616495280719 -0.3232293457539252 0
0.1712572810801393 0.1052929199241782 0 0.721639871778225 -0.3407743414979643 0
0.1712572810801393 0.1052929199241782 0.0146 0.7216398717782249 -0.3407743414979644 0
0.1904347826086956 0.10243242715578 0 0.7916105286515626 -0.2695766301668464 0
0.1904347826086956 0.10243242715578 0.003873390476862264 0.7916105286515625 -0.2695766301668464 0
0.1875503531276851 0.1019461656716773 0.003317093903162047 0.8133804146699682 -0.2960890976416786 0
0.1875503531276851 0.1019461656716773 0.01128290609683795 0.8133804146699684 -0.2960890976416786 0
0.1904347826086956 0.10243242715578 0.0146 0.7916105286515626 -0.2695766301668464 0
0.1823419488720684 0.1036735254365848 0 0.743635865276395 -0.2967603955206707 0
0.1813410638263829 0.1026674152943489 0.007299999999999998 0.7862401515922876 -0.3211309572807133 0
0.1823419488720684 0.1036735254365848 0.0146 0.743635865276395 -0.2967603955206707 0
0.2031304347826087 0.1008739957893302 0 0.8538452545677075 -0.2125832320826478 2.317459322558594e-22
0.2031304347826087 0.1008739957893302 0.002090501932640457 0.8538452545677075 -0.2125832320826478 2.317459322558594e-22
0.2018325313145456 0.1003513572374538 0.001492588988272596 0.8734810928597803 -0.2230384188481539 2.151715235349627e-22
0.2018325313145456 0.1003513572374538 0.0131074110117274 0.8734810928597803 -0.2230384188481538 2.151715235349627e-22
0.2031304347826087 0.1008739957893302 0.0146 0.8538452545677073 -0.2125832320826477 2.317459322558593e-22
0.1935154771869593 0.1021434553661978 0 0.7965808288827849 -0.2587554077752093 0
0.1925302410650306 0.1011530758425525 0.00240977722478523 0.8348950116127605 -0.2703038325346398 0
0.1925302410650306 0.1011530758425525 0.01219022277521476 0.8348950116127604 -0.2703038325346399 0
0.1935154771869593 0.1021434553661978 0.0146 0.7965808288827848 -0.2587554077752092 0
0.2158260869565218 0.09975781889565974 0 0.9212544607174455 -0.1380139523641223 5.351314415934663e-22
0.2158260869565218 0.09975781889565974 0.0008135647252075143 0.9212544607174455 -0.1380139523641222 5.351314415934663e-22
0.2153803798958707 0.09949471195898725 0.0005125631197487498 0.9259552145253854 -0.1392364978242494 5.269195132834187e-22
0.2153803798958707 0.09949471195898725 0.01408743688025125 0.9259552145253855 -0.1392364978242494 5.269195132834186e-22
0.2158260869565218 0.09975781889565973 0.0146 0.921254460717446 -0.1380139523641223 5.351314415934656e-22
0.2048465464341063 0.1007717486667525 0 0.8698623705392273 -0.207095820387891 2.339129369114652e-22
0.2041884723948093 0.1001102391676017 0.001216743254030618 0.8828933269275228 -0.2074814289325534 2.253919378947534e-22
0.2041884723948093 0.1001102391676017 0.01338325674596938 0.8828933269275228 -0.2074814289325534 2.253919378947539e-22
0.2048465464341063 0.1007717486667525 0.0146 0.8698623705392272 -0.207095820387891 2.339129369114651e-22
0.2285217391304348 0.0995589893128703 0 0.9724645249817352 -0.05239426051149168 7.499385403361927e-22
0.2285217391304348 0.0995589893128703 0.0005860981886379985 0.9724645249817352 -0.0523942605114916 7.499385403361711e-22
0.2282259596739675 0.09934400166131549 0.0003401463749373925 0.9718473716390503 -0.05239768727362879 2.824335985724359e-22
0.2282259596739675 0.09934400166131549 0.01425985362506261 0.9718473716390503 -0.05239768727362877 2.824335985724348e-22
0.2285217391304348 0.0995589893128703 0.0146 0.9724645249817351 -0.05239426051149168 7.499385403361927e-22
0.2165249019957274 0.09974914128171741 0 0.9297526379999976 -0.1334432720406583 1.173922567678955e-21
0.2162306401064399 0.09945334320524314 0.0004652361224058278 0.9293011906671395 -0.1327028461416521 5.305935833108931e-22
0.2162306401064399 0.09945334320524314 0.01413476387759417 0.9293011906671395 -0.1327028461416521 5.305935833108931e-22
0.2165249019957274 0.09974914128171741 0.0146 0.9297526379999976 -0.1334432720406583 1.173922567678954e-21
0.2412173913043479 0.1004035421494083 0 1.025934604799637 0.03197306285547095 -2.081122922947589e-22
0.2412173913043479 0.1004035421494083 0.001552289969469378 1.025934604799637 0.03197306285547101 -2.081122922947819e-22
0.2404399485622889 0.09982817945862155 0.0008940591533679165 1.011309217200342 0.03043856561792213 -1.968083712912597e-21
0.2404399485622889 0.09982817945862155 0.01370594084663208 1.011309217200342 0.03043856561792214 -1.968083712912597e-21
0.2412173913043479 0.1004035421494083 0.0146 1.025934604799637 0.03197306285547113 -2.08112292294748e-22
0.2290488494578267 0.09957654018954386 0 0.9794846282471574 -0.04762972101604836 9.853615650996625e-22
0.2288287160693023 0.09935525759990595 0.0003530234796976346 0.9740412256327333 -0.04766752123206649 2.819110405945184e-22
0.2288287160693023 0.09935525759990595 0.01424697652030237 0.9740412256327334 -0.04766752123206649 2.819110405945214e-22
0.2290488494578267 0.09957654018954386 0.0146 0.9794846282471573 -0.04762972101604836 9.853615650996529e-22
0.2539130434782608 0.1017987750740537 0 1.094636680955447 0.1151450029753887 -1.998885850292359e-21
0.2539130434782608 0.1017987750740537 0.003148474986932377 1.094636680955447 0.1151450029753887 -1.998885850292359e-21
0.2522986668327621 0.1006694825555772 0.001856533142323572 1.046556876352942 0.1050749113302918 -3.883153921892139e-21
0.2522986668327621 0.1006694825555771 0.01274346685767642 1.046556876352942 0.1050749113302918 -3.883153921892138e-21
0.2539130434782608 0.1017987750740537 0.0146 1.094636680955447 0.1151450029753887 -1.998885850292348e-21
0.2426681692745421 0.1005050298172834 0 1.040546079924483 0.04462667338342255 -1.454391582110964e-21
0.2420931561398556 0.09992701484021801 0.001007129560833834 1.015910502652423 0.04104992384636687 -2.491129613772708e-21
0.2420931561398556 0.09992701484021801 0.01359287043916617 1.015910502652423 0.04104992384636689 -2.491129613772707e-21
0.2426681692745421 0.1005050298172834 0.0146 1.040546079924483 0.04462667338342255 -1.454391582110964e-21
0.2666086956521739 0.1034431091011259 0 1.146065409681653 0.1840259606264419 -1.259910650281727e-21
0.2666086956521739 0.1034431091011259 0.00502963854848191 1.146065409681653 0.1840259606264419 -1.259910650281727e-21
0.2638568547406859 0.1018128849266845 0.003164617048211207 1.083239124582139 0.1676319078982606 -2.007595429637225e-21
0.2638568547406859 0.1018128849266845 0.01143538295178879 1.083239124582139 0.1676319078982606 -2.007595429637225e-21
0.2666086956521739 0.1034431091011259 0.0146 1.146065409681653 0.1840259606264419 -1.259910650281727e-21
0.2570043816377181 0.1021541545119536 0 1.097641084624122 0.1308912732019212 -3.052137171292426e-21
0.2559387417722881 0.1010829514989785 0.002329553038131401 1.056233651134775 0.1241346100096487 -3.423373414326036e-21
0.2559387417722881 0.1010829514989784 0.01227044696186859 1.056233651134775 0.1241346100096487 -3.423373414326038e-21
0.2570043816377182 0.1021541545119536 0.0146 1.097641084624122 0.1308912732019215 -3.052137171292431e-21
0.2793043478260869 0.1054818990517024 0 1.178568566190902 0.2217575020393255 0
0.2793043478260869 0.1054818990517024 0.007362070585728582 1.178568566190902 0.2217575020393255 0
0.2727113412157325 0.1035440160112232 0.007206014132697475 1.115499489256937 0.2014143423762046 -2.646973594462692e-22
0.2793043478260869 0.1054818990517024 0.0146 1.178568566190902 0.2217575020393255 0
0.2718386918296132 0.104303977343198 0 1.136525865908485 0.1926230092342037 -9.325701304123954e-22
0.2718386918296132 0.104303977343198 0.0146 1.136525865908485 0.1926230092342037 -9.325701304123956e-22
0.285941860015846 0.1073766885053605 0.007411046339407631 1.186070041020316 0.2223329618986009 0
0.292 0.1076195269399875 0 1.212168969939102 0.2200885063116031 0
0.292 0.1076195269399875 0.009807575954704004 1.212168969939101 0.2200885063116031 0
0.292 0.1076195269399875 0.0146 1.212168969939101 0.2200885063116031 0
0.2870558154671971 0.1068386120886099 0 1.187925526502566 0.2152039900859088 0
0.2870558154671971 0.1068386120886099 0.0146 1.187925526502566 0.2152039900859088 0
0.05078260869565217 0.1237290729836219 0 0.2037449793032444 -0.4945878435449579 -1.440293274206576e-21
0.05030378476219827 0.1240892135204592 0.01404935247652801 0.2017174171955995 -0.4962411855131507 -1.51819717663002e-21
0.05030378476219825 0.1240892135204592 0.0005506475234720127 0.2017174171955994 -0.4962411855131508 -1.518197176630021e-21
0.05078260869565217 0.1237290729836218 0.01363734175134611 0.2037449793032444 -0.494587843544958 -1.440293274206579e-21
0.05078260869565217 0.1237290729836218 0.0146 0.2037449793032444 -0.494587843544958 -1.440293274206579e-21
0.04045181250754347 0.1245705371428571 0.0146 0.1617404628089437 -0.4966599455179507 -8.79549595422516e-22
0.04045181250754347 0.1245705371428571 0.002719584383674993 0.1617404628089437 -0.4966599455179507 -8.79549595422516e-22
0.04045181250754337 0.1245705371428571 0 0.1617404628089433 -0.4966599455179507 -8.795495954225107e-22
0.04997864555632615 0.1237623769331043 0 0.2004715317246956 -0.4946279816019808 -1.396039701173703e-21
0.04997864555632618 0.1237623769331043 0.0146 0.2004715317246957 -0.494627981601981 -1.396039701173709e-21
0.06347826086956521 0.1224853602203441 0 0.256882463336057 -0.4914883050398093 -1.046297876021173e-21
0.06224638114233487 0.1233322264168412 0.01318333831368511 0.2514776136107197 -0.4954515482899677 -1.279795567711637e-21
0.06224638114233487 0.1233322264168412 0.00141666168631489 0.2514776136107198 -0.4954515482899678 -1.279795567711638e-21
0.06347826086956521 0.1224853602203441 0.01221449998514006 0.2568824633360569 -0.4914883050398091 -1.046297876021173e-21
0.06347826086956521 0.1224853602203441 0.0146 0.2568824633360569 -0.4914883050398092 -1.046297876021173e-21
0.05132306779603332 0.1240272565886105 0.01397847203456168 0.2058510842919995 -0.4961807977302654 -1.523852766469017e-21
0.05132306779603334 0.1240272565886106 0.0006215279654383483 0.2058510842919996 -0.4961807977302654 -1.523852766469017e-21
0.06151759850604802 0.1225996391881536 0 0.2487880767639169 -0.4916846351646864 -1.072080307776394e-21
0.06151759850604801 0.1225996391881536 0.0146 0.2487880767639168 -0.4916846351646862 -1.072080307776394e-21
0.07617391304347826 0.1210677292471715 0 0.3116529509609709 -0.487422811141112 -7.965035119993217e-22
0.07398124203137427 0.1223664193439409 0.01207842833608041 0.3015972975817701 -0.4937735214843845 -7.186153090372885e-22
0.07398124203137425 0.1223664193439409 0.002521571663919594 0.30159729758177 -0.4937735214843844 -7.18615309037285e-22
0.07617391304347826 0.1210677292471715 0.01059269098128171 0.311652950960971 -0.4874228111411121 -7.965035119993216e-22
0.07617391304347826 0.1210677292471716 0.0146 0.3116529509609709 -0.4874228111411121 -7.965035119993227e-22
0.06494841854268463 0.1230927045466089 0.01290931867591267 0.2626028473006876 -0.4950873343245411 -8.950675681532356e-22
0.06494841854268463 0.1230927045466089 0.001690681324087326 0.2626028473006877 -0.4950873343245411 -8.95067568153236e-22
0.07293899565086015 0.1213187319410127 0 0.2980745711780158 -0.4879790084024902 -9.300300390814396e-22
0.07293899565086015 0.1213187319410127 0.0146 0.2980745711780159 -0.4879790084024904 -9.300300390814404e-22
0.08886956521739131 0.1194368850605735 0 0.3640280907707097 -0.481569338485949 -4.172740415152216e-22
0.08540986778213341 0.1210927784395122 0.007299999999999998 0.3481190086082663 -0.490559573240189 -3.176162730558519e-22
0.08886956521739131 0.1194368850605735 0.008726960169972271 0.3640280907707096 -0.481569338485949 -4.172740415152214e-22
0.08886956521739131 0.1194368850605735 0.0146 0.3640280907707097 -0.481569338485949 -4.172740415152214e-22
0.07899875229874931 0.121730950881512 0.01135143485643828 0.3223999755386307 -0.4924278978229341 -6.09284665717512e-22
0.07899875229874931 0.121730950881512 0.003248565143561714 0.3223999755386307 -0.4924278978229341 -6.092846657175121e-22
0.08428522729497173 0.1199622667934644 0 0.3443772369276974 -0.483219643283755 -4.460129226980494e-22
0.08428522729497173 0.1199622667934644 0.0146 0.3443772369276973 -0.483219643283755 -4.460129226980495e-22
0.1015652173913043 0.1175747054019779 0 0.4203431340692462 -0.4744482207267386 0
0.09512570501641539 0.1188779637069423 0.007264853589625907 0.3890339436120915 -0.483499724323644 -4.269717085399369e-23
0.1015652173913043 0.1175747054019779 0.006596575186669137 0.4203431340692462 -0.4744482207267386 0
0.1015652173913043 0.1175747054019779 0.0146 0.4203431340692463 -0.4744482207267386 0
0.09551638984408406 0.1184901318354463 0 0.3941310415701438 -0.4781291941816637 -9.300423097033047e-37
0.09551638984408409 0.1184901318354463 0.0146 0.3941310415701439 -0.4781291941816638 0
0.1142608695652174 0.1155403426836143 0 0.4799407728606721 -0.4653643296358889 -2.192808726705143e-22
0.1142608695652174 0.1155403426836143 0.004269208025402879 0.479940772860672 -0.4653643296358889 -2.192808726705142e-22
0.1082616800609014 0.1156694731261736 0.007433644023345566 0.4474111751809594 -0.4681768618721773 0
0.1142608695652174 0.1155403426836143 0.0146 0.479940772860672 -0.4653643296358889 -2.192808726705134e-22
0.1065940522740212 0.1168636954145356 0 0.4469419183610702 -0.472089844939322 -2.970425402772735e-22
0.1065940522740212 0.1168636954145355 0.0146 0.4469419183610701 -0.472089844939322 -2.970425402772736e-22
0.1269565217391304 0.1132617132013065 0 0.5373207458027238 -0.4513867628240745 -1.314275001901567e-22
0.1269565217391304 0.1132617132013065 0.001662392936851681 0.5373207458027238 -0.4513867628240745 -1.314275001901554e-22
0.125868146643533 0.1129026645509179 0.001251631359937052 0.529793251623042 -0.4501162376570907 -2.562982517265858e-37
0.125868146643533 0.1129026645509179 0.01334836864006295 0.529793251623042 -0.4501162376570908 -3.84447377589879e-37
0.1269565217391304 0.1132617132013065 0.0146 0.5373207458027239 -0.4513867628240745 -1.314275001901553e-22
0.1175470404591718 0.1151119338899118 0 0.495912956029734 -0.4632884192889783 -2.987724494301716e-22
0.1165459535671849 0.1141056208476406 0.002627846602262585 0.4857591178432966 -0.4589968305842426 -2.34789566423459e-37
0.1165459535671849 0.1141056208476406 0.01197215339773742 0.4857591178432967 -0.4589968305842427 -1.025193006906344e-36
0.1175470404591718 0.1151119338899118 0.0146 0.495912956029734 -0.4632884192889783 -2.987724494301716e-22
0.1282550730526617 0.1131139379887933 0 0.542606435712114 -0.4498746502770845 -4.135917843228107e-23
0.127745615967809 0.112601821295359 0.0009074583629803578 0.5390853019303676 -0.4476446813155742 -2.989959062673112e-37
0.1282550730526617 0.1131139379887933 0.0146 0.542606435712114 -0.4498746502770845 -4.135917843228106e-23
0.127745615967809 0.112601821295359 0.01369254163701964 0.5390853019303676 -0.4476446813155742 1.795717536774221e-37
0.01269565217391304 0.1258422152153674 0 0.05274929631790563 -0.4996283428440608 0
0.01269565217391304 0.1258422152153674 0.001454834852677358 0.05274929631790563 -0.4996283428440608 0
0.01190152196348368 0.1253688130911421 0.000913249741993761 0.04966563615269479 -0.4970863043583492 0
0.01190152196348368 0.1253688130911421 0.01368675025800624 0.04966563615269479 -0.4970863043583492 0
0.01269565217391304 0.1258422152153674 0.0146 0.05274929631790562 -0.4996283428440608 0
0.000846929502656302 0.125421888020817 0.01362603107194525 0.00393516672074414 -0.06860348725901962 0
0 0.1259353728102402 0.0146 0 0 0
0.0008469295026563003 0.125421888020817 0.0009739689280547468 0.003935166720744132 -0.06860348725901949 0
0 0.1259353728102402 0.001561409715248567 0 0 0
0 0.1259353728102402 0 0 0 0
0.001351799787659819 0.1259293939691227 0 0.005808408176289313 -0.05799773760279742 0
0.001351799787659821 0.1259293939691227 0.0146 0.005808408176289316 -0.05799773760279745 0
0.02539130434782608 0.1254810906470236 0 0.1013583369281791 -0.4988912916650028 0
0.02539130434782608 0.1254810906470236 0.001041698368262278 0.1013583369281791 -0.4988912916650027 0
0.02482151315647713 0.125143302915554 0.0006552598700512934 0.09886916124672006 -0.4969770826205618 0
0.02482151315647713 0.125143302915554 0.01394474012994871 0.0988691612467201 -0.4969770826205618 0
0.02539130434782608 0.1254810906470236 0.0146 0.1013583369281791 -0.4988912916650029 0
0.01393988973583265 0.125821270217344 0 0.05756093699190807 -0.4996378495794229 0
0.01347256052929307 0.1253515013298086 0.0008934446086870317 0.05535097945223946 -0.4970076494932933 0
0.01347256052929307 0.1253515013298086 0.01370655539131297 0.05535097945223944 -0.4970076494932933 0
0.01393988973583265 0.125821270217344 0.0146 0.05756093699190808 -0.4996378495794229 0
0.03808695652173913 0.1247680429366531 0 0.1522180161440448 -0.4972351066084881 -7.303951937557803e-22
0.03808695652173913 0.1247680429366531 0.0002259520853834458 0.1522180161440448 -0.4972351066084881 -7.303951937557803e-22
0.03796556300409537 0.1246925643924694 0.0001396025452903241 0.1516511486604067 -0.49676973194409 -7.229360023799356e-22
0.03796556300409537 0.1246925643924694 0.01446039745470968 0.1516511486604067 -0.4967697319440901 -7.229360023799357e-22
0.03808695652173913 0.1247680429366531 0.0146 0.1522180161440448 -0.4972351066084881 -7.303951937557802e-22
0.02627017200367128 0.1254539929063742 0 0.1050126795167341 -0.499044497683613 -2.134051984082397e-23
0.0259274071022182 0.1251094386089142 0.0006165181675509346 0.1032815976400831 -0.4969596880916248 -1.026757804060933e-37
0.0259274071022182 0.1251094386089142 0.01398348183244907 0.103281597640083 -0.4969596880916246 -3.406389616782457e-37
0.02627017200367128 0.1254539929063742 0.0146 0.105012679516734 -0.499044497683613 -2.134051984082424e-23
0.03827572920570924 0.1247602953101293 0 0.1530035440035925 -0.4972778253930551 -7.355000426513788e-22
0.03819809780877654 0.1246822586403373 0.0001278124800930219 0.1525859116741023 -0.4967580551782638 -7.457160796281593e-22
0.03827572920570924 0.1247602953101293 0.0146 0.1530035440035926 -0.497277825393055 -7.35500042651379e-22
0.03819809780877654 0.1246822586403373 0.01447218751990698 0.1525859116741023 -0.4967580551782638 -7.457160796281595e-22
0.2979998699999999 0.1092168294873026 0 1.236833352664242 0.1973168305352323 0
0.2970587374194078 0.1098067863019062 0.01230986110088314 1.22409739992163 0.1971710334830181 0
0.2970587374194078 0.1098067863019062 0.002290138899116854 1.22409739992163 0.1971710334830181 0
0.2979998699999999 0.1092168294873026 0.01163493420388511 1.236833352664242 0.1973168305352323 0
0.2979998699999999 0.1092168294873026 0.0146 1.236833352664242 0.1973168305352322 0
0.2932920006221691 0.1090604779287642 0.01145606370076863 1.2092703778835 0.2123619289954589 0
0.2932920006221691 0.1090604779287642 0.003143936299231366 1.2092703778835 0.2123619289954588 0
0.2966320926891606 0.1088992983098132 0 1.227963078757022 0.2006390510743671 0
0.2966320926891606 0.1088992983098132 0.0146 1.227963078757022 0.2006390510743671 0
0.30399974 0.1109884217866762 0 1.259963219439896 0.1668494685673547 0
0.3037321150058517 0.1112393600663287 0.01394876507081548 1.256143313618369 0.1668131441491848 0
0.3037321150058516 0.1112393600663287 0.0006512349291845143 1.256143313618369 0.166813144149185 0
0.30399974 0.1109884217866762 0.01366168474521967 1.259963219439896 0.1668494685673548 0
0.30399974 0.1109884217866762 0.0146 1.259963219439896 0.1668494685673548 0
0.2987261441635127 0.1102637975332101 0.01283269457716811 1.234186262041878 0.1910582754634312 0
0.2987261441635127 0.1102637975332101 0.001767305422831895 1.234186262041878 0.1910582754634311 0
0.3035648719427457 0.1108836283280237 0 1.257491371802052 0.168601389750168 0
0.3035648719427457 0.1108836283280237 0.0146 1.257491371802052 0.168601389750168 0
0.304197293908742 0.111388403671209 0.01411927507302112 1.258707511948134 0.1645742181278916 0
0.304197293908742 0.111388403671209 0.0004807249269788746 1.258707511948133 0.1645742181278916 0
0.3065322489289932 0.1118086076190476 0.0146 1.269269889394533 0.1537843355359421 0
0.3065322489289932 0.1118086076190476 0.006162571916274961 1.269269889394533 0.1537843355359423 0
0.3065322489289932 0.1118086076190476 0 1.269269889394533 0.1537843355359422 0
0.30999961 0.1128851532016701 0 1.31767192320935 0.136347961525504 -3.338603478741491e-22
0.30999961 0.1128851532016701 0.001231597892541636 1.31767192320935 0.136347961525504 -3.338603478741492e-22
0.3097252419126757 0.1123921979625075 0.0006676434780977671 1.283646863739224 0.1388313099251157 -2.636393550024527e-36
0.3097252419126757 0.1123921979625075 0.01393235652190223 1.283646863739224 0.1388313099251157 -2.74624328127555e-36
0.30999961 0.1128851532016701 0.0146 1.317671923209351 0.136347961525504 -3.338603478741498e-22
0.31599948 0.1140651510297963 0 1.394211463423001 0.1070277861507672 -4.070894788190814e-22
0.31599948 0.1140651510297963 0.002581548012427556 1.394211463423001 0.1070277861507672 -4.070894788190816e-22
0.3154009828085532 0.1130816316974764 0.001456374720639652 1.323472409333146 0.1132607441708324 -1.456959947228921e-35
0.3154009828085532 0.1130816316974764 0.01314362527936035 1.323472409333145 0.1132607441708324 -1.428204158796771e-35
0.31599948 0.1140651510297963 0.0146 1.394211463423001 0.1070277861507672 -4.070894788190813e-22
0.3105367797209356 0.1129511860617314 0 1.321256808780229 0.1334308259126206 -2.061257321824589e-22
0.3103068326385754 0.1124620807212345 0.0007475912850113245 1.285976813213054 0.1362568510219676 7.753294004566345e-37
0.3103068326385754 0.1124620807212345 0.01385240871498867 1.285976813213054 0.1362568510219677 2.044856066286205e-36
0.3105367797209356 0.1129511860617314 0.0146 1.321256808780229 0.1334308259126206 -2.061257321824589e-22
0.3301047705263158 0.0516008175019549 0 0.6290847705032849 0.06339129435982603 -3.176933977891053e-23
0.3285342595734551 0.04941989848115968 0.001625592884385292 0.5428219149704762 0.07533653909802433 2.400973074714097e-21
0.3301047705263158 0.05160081750195489 0.004120624505129215 0.629084770503284 0.06339129435982653 -3.176933977886582e-23
0.3285342595734552 0.04941989848115969 0.01297440711561471 0.5428219149704792 0.07533653909802301 2.400973074713998e-21
0.3301047705263158 0.0516008175019549 0.0146 0.629084770503285 0.06339129435982516 -3.17693397789631e-23
0.3442100610526316 0.05807427122395684 0 0.6540927939011614 0.1553789655166152 -3.01222651490619e-20
0.3386247340082709 0.05570749838843561 0.005781219089073576 0.5681973082419404 0.2049150370505736 -5.215860000964325e-21
0.3386247340082709 0.05570749838843561 0.008818780910926435 0.5681973082419404 0.2049150370505736 -5.215860000964325e-21
0.3442100610526316 0.05807427122395684 0.01152643443104202 0.6540927939011616 0.155378965516615 -3.012226514906192e-20
0.3442100610526316 0.05807427122395684 0.0146 0.6540927939011615 0.1553789655166147 -3.012226514906212e-20
0.3366706797495692 0.05482030498848502 0.007803807147349963 0.5472215547236874 0.216336828338852 1.311534006834088e-21
0.3366706797495692 0.05482030498848502 0.006796192852650049 0.5472215547236878 0.2163368283388519 1.311534006834089e-21
0.3383168781366205 0.05542896212360907 0 0.6535700566442533 0.09534770222637669 -1.773624205361375e-20
0.3383168781366205 0.05542896212360907 0.0146 0.6535700566442533 0.09534770222637648 -1.773624205361375e-20
0.3454131969369289 0.05967233800944526 0.01335466698981001 0.6244696252416017 0.1544917182001501 -4.488629879229111e-20
0.3528908521677852 0.06076088952380953 0.0146 0.8039088867834311 0.100316155865314 -2.95654558218752e-20
0.3454131969369289 0.05967233800944526 0.001245333010189987 0.6244696252416017 0.1544917182001501 -4.488629879229112e-20
0.3528908521677852 0.06076088952380953 0.00898524919035085 0.8039088867834311 0.100316155865314 -2.95654558218752e-20
0.3528908521677852 0.06076088952380953 0 0.8039088867834312 0.100316155865314 -2.956545582187521e-20
0.3583153515789473 0.06240653017620312 0 0.9008846239789855 0.07355948031004522 -2.549664492227516e-20
0.3574408861784602 0.06155207250520259 0.000905135191883633 0.8867138190474095 0.07355674965710693 -2.564177359895404e-20
0.3583153515789473 0.06240653017620312 0.001882658377020606 0.9008846239789856 0.07355948031004522 -2.549664492227516e-20
0.3574408861784603 0.0615520725052026 0.01369486480811636 0.886713819047409 0.07355674965710676 -2.564177359895412e-20
0.3583153515789473 0.06240653017620313 0.0146 0.9008846239789856 0.07355948031004524 -2.549664492227514e-20
0.372420642105263 0.06738492389445133 0 1.117878087501221 0.05909856470020557 0
0.3690470886595724 0.06381315216514868 0.003491872798734056 1.06079818236166 0.06161302751962375 0
0.372420642105263 0.06738492389445133 0.007578078348649389 1.117878087501221 0.05909856470020557 0
0.3690470886595724 0.06381315216514868 0.01110812720126594 1.06079818236166 0.06161302751962376 0
0.372420642105263 0.06738492389445133 0.0146 1.117878087501221 0.05909856470020557 0
0.3596237503380952 0.06194467887732432 0.001354287729694094 0.9038935614110521 0.07415090607878623 -2.384078670845499e-20
0.3612972911496361 0.06345883484967085 0 0.9321289454083864 0.07272827946178062 -2.308304817971048e-20
0.3596237503380952 0.06194467887732433 0.0132457122703059 0.9038935614110525 0.07415090607878608 -2.384078670845487e-20
0.3612972911496361 0.06345883484967087 0.0146 0.9321289454083869 0.07272827946178068 -2.308304817971045e-20
0.3865259326315789 0.07325441658971235 0 1.245126760526477 0.03108540907622698 0
0.3863200256377942 0.0733365222437186 0.0002131286912274554 1.250664003362851 0.03386156095225159 0
0.3863200256377942 0.0733365222437186 0.01438687130877254 1.25066400336285 0.0338615609522516 0
0.3865259326315789 0.07325441658971237 0.01429294017192881 1.245126760526477 0.03108540907622712 0
0.3865259326315789 0.07325441658971235 0.0146 1.245126760526476 0.03108540907622698 0
0.3754224225377061 0.07080692246588488 0.01149293926758168 1.19347362582475 0.06956925805835493 0
0.3754224225377061 0.07080692246588488 0.003107060732418323 1.19347362582475 0.06956925805835493 0
0.3860147185621696 0.0730602920324392 0 1.244552287247161 0.03333173166454205 0
0.3860147185621696 0.0730602920324392 0.0146 1.244552287247161 0.03333173166454206 0
0.3866639432593689 0.07339795228914232 0.01445714897811033 1.253239920675987 0.03059425255610129 0
0.3870799268680881 0.07352281904761905 0.0146 1.250808306197405 0.03120406891434004 0
0.3866639432593689 0.07339795228914232 0.0001428510218896689 1.253239920675987 0.03059425255610129 0
0.3870799268680881 0.07352281904761905 0.0005734242650261662 1.250808306197405 0.03120406891434005 0