# p  POINT_DATA 702
# x y z  p
0.3442100610526315 0.04786321869576037 0 95490.15802551575
0.3440145976014005 0.04791581706189817 0.0002023188662898764 95490.24962947736
0.3440145976014005 0.04791581706189817 0.01439768113371012 95490.24962947739
0.3442100610526316 0.04786321869576037 0.0142696890029453 95490.15802551576
0.3442100610526316 0.04786321869576037 0.0146 95490.15802551578
0.3320946015467737 0.04799896 0.0146 95490.29424333095
0.3320946015467739 0.04799895999999999 0.002059619604749602 95490.29424333094
0.3320946015467739 0.04799895999999999 0 95490.29424333094
0.3439084150564802 0.04787065092621296 0 95490.11896993221
0.3439084150564802 0.04787065092621295 0.0146 95490.11896993226
0.3443860267460394 0.04792411068846425 0.01441786272895549 95490.21102719006
0.3449959211563549 0.04799895999999999 0.0146 95490.09415406683
0.3443860267460393 0.04792411068846425 0.0001821372710445042 95490.21102719003
0.3449959211563548 0.04799895999999999 0.000813422275347988 95490.0941540668
0.3449959211563548 0.04799895999999999 0 95490.0941540668
0.1142608695652174 0.09861835446211001 0 95204.72786774619
0.1140181211027188 0.0988026623701708 0.01432083926812665 95202.54400834815
0.1140181211027188 0.0988026623701708 0.0002791607318733462 95202.54400834814
0.1142608695652174 0.09861835446211001 0.01410998592869493 95204.72786774619
0.1142608695652174 0.09861835446211001 0.0146 95204.72786774619
0.1092138219283084 0.09904667809523809 0.0146 95203.21497290052
0.1092138219283084 0.09904667809523809 0.008795895217554726 95203.21497290052
0.1092138219283084 0.09904667809523809 0 95203.21497290052
0.1138510264374839 0.09863469539121442 0 95204.85476677273
0.1138510264374839 0.09863469539121442 0.0146 95204.85476677274
0.1269565217391304 0.09758525923701963 0 95207.97795146353
0.1260946206490811 0.09818027747106955 0.01360881374644323 95200.64234008687
0.1260946206490811 0.09818027747106957 0.0009911862535567674 95200.64234008687
0.1269565217391304 0.09758525923701963 0.01292809644574655 95207.97795146353
0.1269565217391304 0.09758525923701963 0.0146 95207.97795146352
0.1145300285107463 0.09877611401184258 0.01429046721264172 95202.35239482472
0.1145300285107463 0.09877611401184258 0.0003095327873582766 95202.35239482473
0.1255637549472388 0.09764664039747045 0 95208.35532200421
0.1255637549472388 0.09764664039747045 0.0146 95208.35532200421
0.1396521739130435 0.0966477347444929 0 95210.405682105
0.1381687633218771 0.0975555233943998 0.01289407782015862 95198.47759086014
0.1381687633218771 0.0975555233943998 0.001705922179841383 95198.47759086016
0.1396521739130435 0.0966477347444929 0.01185554252156495 95210.40568210499
0.1396521739130435 0.0966477347444929 0.0146 95210.405682105
0.1279246749291221 0.09807347068456926 0.01348662383150952 95199.99967331809
0.1279246749291221 0.09807347068456926 0.001113376168490485 95199.9996733181
0.1373701456108723 0.09675273651864943 0 95210.8936978475
0.1373701456108723 0.09675273651864945 0.0146 95210.89369784747
0.1523478260869565 0.09583083086320018 0 95212.22876078656
0.1502498230637249 0.09693772249717617 0.01218729652328369 95196.21063841757
0.1502498230637249 0.09693772249717617 0.002412703476716313 95196.21063841757
0.1523478260869565 0.09583083086320018 0.0109209819095022 95212.22876078656
0.1523478260869565 0.09583083086320018 0.0146 95212.22876078656
0.1413305230772888 0.0973595671491415 0.01266989846111785 95197.46812041127
0.1413305230772888 0.0973595671491415 0.001930101538882153 95197.46812041129
0.1492850661742375 0.09596792911731762 0 95212.64675057329
0.1492850661742375 0.09596792911731762 0.0146 95212.64675057329
0.1650434782608695 0.09516691487184599 0 95213.74812008206
0.162364103764751 0.09635331598835727 0.01151871932946376 95194.04896037481
0.162364103764751 0.09635331598835727 0.003081280670536241 95194.0489603748
0.1650434782608695 0.09516691487184599 0.01016144367073608 95213.74812008205
0.1650434782608695 0.09516691487184599 0.0146 95213.74812008206
0.1547158368605379 0.09666630517779431 0.0118767876103813 95194.96962839534
0.1547158368605379 0.09666630517779431 0.002723212389618698 95194.96962839532
0.1613293908963003 0.09531320142601285 0 95213.87977886519
0.1613293908963003 0.09531320142601285 0.0146 95213.87977886519
0.1777391304347826 0.09469266494441168 0 95215.3317935751
0.1745681312757622 0.09585912481060802 0.01095335096712657 95192.27723562755
0.1745681312757622 0.09585912481060802 0.003646649032873434 95192.27723562757
0.1777391304347826 0.09469266494441168 0.009618888649755693 95215.33179357511
0.1777391304347826 0.09469266494441167 0.0146 95215.33179357511
0.168017181074721 0.09605745113664932 0.01118024176407075 95192.81453356335
0.168017181074721 0.09605745113664932 0.003419758235929251 95192.81453356337
0.1735371906406224 0.09482280217442864 0 95214.88653649387
0.1735371906406224 0.09482280217442865 0.0146 95214.88653649388
0.1904347826086956 0.09447567403503958 0 95216.94414654007
0.1840470213610904 0.09555298912941955 0.00728469152175132 95191.39406309984
0.1904347826086956 0.09447567403503958 0.009370645053760097 95216.94414654007
0.1904347826086956 0.09447567403503959 0.0146 95216.94414654009
0.1859572954440629 0.09454581631546932 0 95215.80095271507
0.1859572954440629 0.09454581631546932 0.0146 95215.80095271509
0.2031304347826087 0.09461911346533269 0 95217.85375660198
0.1968084513245802 0.09548418377110907 0.007309906341089075 95191.03236698345
0.2031304347826087 0.09461911346533269 0.009534743725389093 95217.85375660195
0.2031304347826087 0.09461911346533269 0.0146 95217.85375660195
0.1986790777847937 0.09457208289420065 0 95216.3718314002
0.1986790777847937 0.09457208289420065 0.0146 95216.3718314002
0.2158260869565218 0.09517291712660389 0 95217.30732450499
0.2128031866498171 0.09600799680945604 0.01112366464728956 95191.7404096972
0.2128031866498171 0.09600799680945604 0.003476335352710448 95191.74040969719
0.2158260869565218 0.09517291712660388 0.01016831041602736 95217.307324505
0.2158260869565218 0.09517291712660388 0.0146 95217.307324505
0.2063792217383064 0.0957809309245902 0.0073 95191.27901949151
0.211821781679185 0.09502146843754158 0 95216.04181351609
0.211821781679185 0.09502146843754157 0.0146 95216.04181351612
0.2285217391304348 0.09622391940464456 0 95214.94165080079
0.2264064856018995 0.09692038193602021 0.01216745844218438 95195.01155954541
0.2264064856018995 0.09692038193602021 0.002432541557815619 95195.01155954543
0.2285217391304348 0.09622391940464456 0.01137068606234059 95214.94165080081
0.2285217391304348 0.09622391940464456 0.0146 95214.9416508008
0.2184456570883798 0.0964134325598774 0.01158749434836324 95193.21934219105
0.2184456570883798 0.09641343255987739 0.003012505651636756 95193.21934219103
0.2255174638364227 0.09602671905358393 0 95214.05000947487
0.2255174638364227 0.09602671905358393 0.0146 95214.05000947489
0.2412173913043479 0.09786695562855645 0 95209.44660781737
0.2404074495556881 0.09823250806496375 0.01366856698904123 95200.92031254563
0.2404074495556881 0.09823250806496375 0.0009314330109587728 95200.9203125456
0.2412173913043479 0.09786695562855645 0.01325036490121513 95209.44660781739
0.2412173913043479 0.09786695562855645 0.0146 95209.4466078174
0.2302248026177892 0.09733472380549701 0.01264147698954239 95197.44176848713
0.2302248026177892 0.09733472380549701 0.001958523010457615 95197.44176848713
0.2399255312285855 0.09774807389470878 0 95209.07411825546
0.2399255312285855 0.09774807389470878 0.0146 95209.07411825548
0.2418535890125542 0.09840715913204366 0.01386837263556273 95202.11462955836
0.2418535890125542 0.09840715913204366 0.0007316273644372666 95202.11462955832
0.2475806517863445 0.09904667809523809 0.0146 95203.60802984779
0.2475806517863445 0.09904667809523809 0.007317749554296109 95203.60802984779
0.2475806517863445 0.09904667809523811 0 95203.60802984779
0.01269565217391304 0.1036412722675026 0 95209.56224968014
0.01269565217391304 0.1036412722675026 0.005256342686261589 95209.56224968014
0.006349645647846807 0.10274983456252 0.007300697498341276 95203.23295709942
0.01269565217391304 0.1036412722675026 0.0146 95209.56224968014
0 0.1036512436885774 0.0146 95209.43578254993
0 0.1036512436885775 0.005267750267491468 95209.43578254993
0 0.1036512436885775 0 95209.43578254993
0.004577620650605843 0.1036481961054594 0 95209.44570580077
0.00457762065060584 0.1036481961054594 0.0146 95209.44570580077
0.02539130434782608 0.1035205861740728 0 95209.5906228754
0.02539130434782608 0.1035205861740728 0.005118274460701526 95209.59062287542
0.01906552354906504 0.1027101109892969 0.007308450693808271 95203.3799100223
0.02539130434782608 0.1035205861740728 0.0146 95209.59062287543
0.0172287805823964 0.1036034715926463 0 95209.64873551091
0.0172287805823964 0.1036034715926463 0.0146 95209.64873551093
0.03808695652173913 0.1032214030775181 0 95209.33792084988
0.03808695652173913 0.1032214030775181 0.004776000731517428 95209.33792084988
0.03179747282362493 0.1024566078479926 0.007322364582389555 95204.09550693863
0.03808695652173913 0.1032214030775181 0.0146 95209.33792084987
0.02975339535480627 0.1034315412944609 0 95209.78468019541
0.02975339535480627 0.1034315412944609 0.0146 95209.78468019541
0.05078260869565217 0.1027771784669864 0 95208.92326920512
0.05078260869565217 0.1027771784669864 0.004267795502702888 95208.92326920512
0.04789089955698335 0.1019534833326151 0.003325465509469143 95204.86301251306
0.04789089955698335 0.1019534833326151 0.01127453449053085 95204.86301251303
0.05078260869565217 0.1027771784669864 0.0146 95208.92326920512
0.0421220868911926 0.1031028737667107 0 95209.58430681952
0.04116906422842873 0.1021448758718269 0.003544423862693031 95205.0942028376
0.04116906422842871 0.1021448758718269 0.01105557613730698 95205.09420283759
0.04212208689119259 0.1031028737667108 0.0146 95209.58430681951
0.06347826086956521 0.1021996739373319 0 95208.25500254554
0.06347826086956521 0.1021996739373319 0.00360711436375559 95208.25500254553
0.0611305550941484 0.1014066400127577 0.002699861641729329 95205.49555579103
0.0611305550941484 0.1014066400127577 0.01190013835827067 95205.49555579104
0.06347826086956521 0.1021996739373319 0.0146 95208.25500254557
0.05436404191901656 0.1026468081054728 0 95209.17488983042
0.05340265887963836 0.1016804061888276 0.00301305771158412 95205.9279275622
0.05340265887963836 0.1016804061888276 0.01158694228841588 95205.9279275622
0.05436404191901656 0.1026468081054728 0.0146 95209.17488983041
0.07617391304347826 0.1014915355384158 0 95207.27728634054
0.07617391304347826 0.1014915355384158 0.00279698446882971 95207.27728634056
0.07443817390054853 0.1007914786230363 0.00199610001436918 95205.66559816136
0.07443817390054853 0.1007914786230363 0.01260389998563082 95205.66559816136
0.07617391304347826 0.1014915355384158 0.0146 95207.27728634054
0.0664899204607507 0.1020740599836132 0 95208.47354397835
0.06557693041467699 0.1011563036947418 0.002413469976878556 95206.37839729118
0.06557693041467699 0.1011563036947418 0.01218653002312144 95206.37839729121
0.0664899204607507 0.1020740599836132 0.0146 95208.47354397835
0.08886956521739131 0.100655055719309 0 95205.96631286948
0.08886956521739131 0.100655055719309 0.001840028443004968 95205.96631286948
0.08778536773775278 0.1001365356020049 0.001246827101584308 95205.22061036534
0.08778536773775278 0.1001365356020049 0.01335317289841569 95205.22061036534
0.08886956521739131 0.100655055719309 0.0146 95205.96631286947
0.07850199338144417 0.1013869121211778 0 95207.43610668433
0.07771551769081733 0.1005963306529337 0.001772845344439938 95206.26874972042
0.07771551769081733 0.1005963306529337 0.01282715465556006 95206.2687497204
0.07850199338144417 0.1013869121211779 0.0146 95207.43610668433
0.1015652173913043 0.09969184939709992 0 95204.32764579347
0.1015652173913043 0.09969184939709992 0.0007380937960525013 95204.32764579347
0.1011527595713949 0.09946128914137586 0.0004743264928957958 95204.13265046962
0.1011527595713949 0.09946128914137586 0.0141256735071042 95204.13265046962
0.1015652173913043 0.09969184939709992 0.0146 95204.32764579347
0.09039968354318825 0.1005847843673235 0 95206.05605847867
0.08983262953233381 0.1000147700645067 0.001107523962183877 95205.5394541011
0.08983262953233381 0.1000147700645067 0.01349247603781612 95205.53945410112
0.09039968354318825 0.1005847843673235 0.0146 95206.05605847867
0.102179699841986 0.099664368436923 0 95204.35589788487
0.1019337009649643 0.09941708532862098 0.0004237561097090364 95204.22688114952
0.102179699841986 0.099664368436923 0.0146 95204.35589788489
0.1019337009649643 0.09941708532862098 0.01417624389029096 95204.22688114949
0.2539130434782608 0.1002035719943728 0 95205.24363680837
0.2539130434782608 0.1002035719943728 0.00132351858673522 95205.24363680837
0.2532964999161891 0.09966644030829605 0.0007090250963825271 95205.15019228164
0.253296499916189 0.09966644030829602 0.01389097490361746 95205.15019228164
0.2539130434782608 0.1002035719943728 0.0146 95205.24363680837
0.2666086956521739 0.1022972055636076 0 95207.05128864619
0.2666086956521739 0.1022972055636076 0.003718693239110501 95207.05128864618
0.2647586739385116 0.1009063578032084 0.002127524970711552 95206.25085614272
0.2647586739385117 0.1009063578032083 0.01247247502928845 95206.25085614271
0.2666086956521739 0.1022972055636076 0.0146 95207.05128864618
0.2552169784606552 0.100357420239162 0 95205.02970135972
0.2546816548112242 0.09981930194536498 0.0008839030329079011 95204.73855260595
0.2546816548112242 0.09981930194536494 0.01371609696709209 95204.73855260594
0.2552169784606552 0.100357420239162 0.0146 95205.02970135973
0.2793043478260869 0.1042452798545325 0 95205.75561619687
0.2793043478260869 0.1042452798545325 0.005947344055152135 95205.75561619685
0.2758905504942027 0.1024782970748125 0.007299999999999999 95202.29648230797
0.2793043478260869 0.1042452798545325 0.0146 95205.75561619684
0.2704166071734569 0.1028744687279534 0 95205.94838587068
0.2692771824349985 0.101729095649777 0.00306875980024826 95203.21129612185
0.2692771824349984 0.101729095649777 0.01153124019975174 95203.21129612185
0.2704166071734569 0.1028744687279534 0.0146 95205.94838587068
0.292 0.1059329561703939 0 95198.87113252806
0.292 0.1059329561703939 0.007878092392666859 95198.87113252809
0.2856100384951704 0.1051008378607518 0.007283848089815323 95190.8553860376
0.2919999999999999 0.1059329561703939 0.0146 95198.87113252809
0.2852845589359136 0.1050581087547776 0 95203.74304483691
0.2852845589359136 0.1050581087547776 0.0146 95203.74304483691
0.31599948 0.04800183604170374 0 95432.4560800375
0.3159988152154429 0.04800037401958147 1.617677471974661e-06 95432.43474877457
0.31599948 0.04800183604170374 3.290271176975779e-06 95432.4560800375
0.3159988152154429 0.04800037401958147 0.01459838232252802 95432.43474877455
0.31599948 0.04800183604170375 0.0146 95432.45608003749
0.3159981502869724 0.04799895999999999 0 95432.43077602393
0.3159981502869723 0.04799895999999999 0.01459676429485906 95432.43077602393
0.3159981502869723 0.04799896 0.0146 95432.43077602393
0.2979998699999999 0.1067204986565226 0 95192.9254812822
0.2950442003900061 0.1071222443825404 0.007335904927611776 95188.40457334465
0.2979998699999999 0.1067204986565226 0.008779062757377635 95192.9254812822
0.2979998699999999 0.1067204986565226 0.0146 95192.92548128219
0.2954614389466279 0.1064092775995333 0 95197.67669744804
0.2954614389466279 0.1064092775995333 0.0146 95197.67669744806
0.30399974 0.1075949267834667 0 95190.19663874019
0.3010692951576518 0.1078254904387985 0.007356365460235915 95187.76649105141
0.30399974 0.1075949267834667 0.009779432695917481 95190.19663874019
0.30399974 0.1075949267834667 0.0146 95190.19663874019
0.3018855141422987 0.1073115766178093 0 95192.03153043566
0.3018855141422987 0.1073115766178093 0.0146 95192.03153043563
0.3099996099999999 0.1094290372369507 0 95188.0981632702
0.3090691488948039 0.1098294848965287 0.01233582892031591 95186.64442518853
0.3090691488948039 0.1098294848965287 0.002264171079684092 95186.64442518851
0.30999961 0.1094290372369507 0.01187770573299291 95188.09816327019
0.30999961 0.1094290372369507 0.0146 95188.0981632702
0.3053401975413685 0.1089574083976306 0.01133814930923849 95187.38994462737
0.3053401975413685 0.1089574083976306 0.003261850690761509 95187.38994462737
0.3087078364068101 0.1090609608271992 0 95188.37209076506
0.3087078364068101 0.1090609608271992 0.0146 95188.37209076509
0.3105917516260523 0.1105491020464612 0.01315909082357377 95185.96359976668
0.3105917516260523 0.1105491020464612 0.001440909176426227 95185.96359976665
0.3156646891034895 0.1110964958855468 0.01378532450052211 95186.33030311609
0.3156646891034895 0.1110964958855468 0.0008146754994778873 95186.33030311609
0.31599948 0.1105829304103212 0 95187.84182632461
0.31599948 0.1105829304103212 0.01319779140654087 95187.84182632461
0.31599948 0.1105829304103212 0.0146 95187.8418263246
0.3153706834299792 0.1104711357219201 0 95187.53287122557
0.3153706834299792 0.1104711357219201 0.0146 95187.53287122557
0.3301047705263158 0.04804213105496625 0 95490.19807608072
0.3300795086874657 0.04802181594943587 2.614783768717447e-05 95490.34098210752
0.3301047705263158 0.04804213105496625 4.938887974043476e-05 95490.19807608072
0.3300795086874656 0.04802181594943587 0.01457385216231283 95490.3409821075
0.3301047705263158 0.04804213105496626 0.0146 95490.19807608072
0.3160011663465983 0.04800048574216032 1.745491189186711e-06 95432.47600205877
0.3160026646320336 0.04800184133374468 0 95432.46569250856
0.3160011663465983 0.04800048574216032 0.01459825450881081 95432.47600205877
0.3160026646320336 0.04800184133374469 0.0146 95432.46569250856
0.3301282268188486 0.04802018235991064 2.427896613262066e-05 95490.29769766011
0.3301541736699924 0.0480436580823741 0 95490.18322078274
0.3301282268188486 0.04802018235991065 0.01457572103386738 95490.29769766009
0.3301541736699924 0.04804365808237411 0.0146 95490.18322078274
0.3583153515789473 0.05245238962215143 0 95479.89709266956
0.3561809065475592 0.04993012455220823 0.002209305607716895 95489.17069532519
0.3583153515789473 0.05245238962215143 0.005094846540415781 95479.89709266956
0.3561809065475592 0.04993012455220822 0.0123906943922831 95489.17069532517
0.3583153515789473 0.05245238962215144 0.0146 95479.89709266956
0.372420642105263 0.05681624990295513 0 95478.84133677595
0.3683236270099676 0.05705406634235181 0.00424070814278619 95480.9838313052
0.3683236270099676 0.05705406634235181 0.01035929185721381 95480.9838313052
0.372420642105263 0.05681624990295513 0.01008722327944006 95478.84133677595
0.372420642105263 0.05681624990295513 0.0146 95478.84133677595
0.363521686718645 0.0560503958259877 0.009211065054082092 95479.68274069765
0.363521686718645 0.05605039582598769 0.005388934945917906 95479.68274069765
0.3656729593069518 0.05465584318248026 0 95481.45968261275
0.3656729593069518 0.05465584318248026 0.0146 95481.45968261274
0.386525932631579 0.05723720734689061 0 95483.49286857068
0.3840272239147356 0.05850015306571318 0.002586344974451308 95484.38016201519
0.3840272239147356 0.05850015306571318 0.01201365502554869 95484.38016201518
0.386525932631579 0.0572372073468906 0.01056881022677367 95483.4928685707
0.386525932631579 0.05723720734689061 0.0146 95483.4928685707
0.3751077501700151 0.05832969651284337 0.01181864801918212 95480.79865635747
0.3751077501700151 0.05832969651284338 0.002781351980817877 95480.79865635745
0.3825045043076602 0.05712245437359731 0 95482.95857025881
0.3825045043076602 0.05712245437359731 0.0146 95482.95857025881
0.4006312231578947 0.0566242264798214 0 95486.93570757398
0.3972744804730322 0.05772383661845777 0.003474472440504377 95488.55403408731
0.3972744804730322 0.05772383661845778 0.01112552755949562 95488.5540340873
0.4006312231578947 0.05662422647982139 0.009867543177577568 95486.93570757398
0.4006312231578947 0.0566242264798214 0.0146 95486.93570757398
0.3895969477328997 0.05798235205118595 0.01142127635757428 95486.13927763423
0.3895969477328997 0.05798235205118595 0.00317872364242572 95486.13927763423
0.396259478935148 0.05680550189370542 0 95486.3483995545
0.396259478935148 0.05680550189370542 0.0146 95486.3483995545
0.4147365136842104 0.05722571883235991 0 95491.09777922317
0.4113971426927553 0.05773955386487396 0.003456491476321186 95492.42286923432
0.4113971426927553 0.05773955386487396 0.01114350852367882 95492.42286923432
0.4147365136842104 0.05722571883235991 0.0105556670487115 95491.09777922317
0.4147365136842104 0.05722571883235991 0.0146 95491.09777922317
0.4042579435476919 0.05747957107589775 0.0073 95489.81660891438
0.4106532689509283 0.05706652524131615 0 95490.7608579575
0.4106532689509282 0.05706652524131615 0.0146 95490.76085795749
0.4288418042105263 0.06016076222119343 0 95495.19271427116
0.428332139745974 0.06029976453207173 0.0005275397318886169 95495.22917976805
0.428332139745974 0.06029976453207173 0.01407246026811139 95495.22917976805
0.4288418042105263 0.06016076222119344 0.013913437783695 95495.19271427115
0.4288418042105264 0.06016076222119344 0.0146 95495.19271427114
0.4171194793458312 0.05860487297281929 0.0121334574927929 95491.88691071153
0.4171194793458312 0.05860487297281929 0.0024665425072071 95491.88691071152
0.4280624464838819 0.06005575634255985 0 95495.13306855192
0.428062446483882 0.06005575634255986 0.0146 95495.13306855192
0.4291654307309022 0.06046808457680274 0.01426502305013334 95495.22014898685
0.4304797781975624 0.06076088952380953 0.0146 95495.56830316986
0.4291654307309022 0.06046808457680274 0.0003349769498666696 95495.22014898685
0.4304797781975623 0.06076088952380952 0.00169542202382221 95495.56830316983
0.4304797781975623 0.06076088952380953 0 95495.56830316983
0.442947094736842 0.06504686349034752 0 95492.03876427245
0.4405318299046445 0.06294612913389301 0.002499974494271885 95498.28841539638
0.442947094736842 0.06504686349034752 0.004903272643428271 95492.03876427247
0.4405318299046446 0.06294612913389303 0.01210002550572811 95498.28841539638
0.4429470947368421 0.06504686349034754 0.0146 95492.03876427248
0.4570523852631578 0.06916219280171132 0 95497.18851622326
0.4508058447540821 0.06787118715845537 0.006465623041394001 95500.98940320575
0.4508058447540821 0.06787118715845537 0.008134376958605982 95500.98940320573
0.4570523852631578 0.06916219280171132 0.0096113230862563 95497.18851622326
0.4570523852631578 0.06916219280171132 0.0146 95497.18851622325
0.4495492362206002 0.06754945294326635 0.007766304126594482 95500.29132884067
0.4495492362206001 0.06754945294326636 0.006833695873405499 95500.29132884066
0.4498422380713458 0.06699935254074152 0 95496.92533805648
0.4498422380713459 0.06699935254074152 0.0146 95496.92533805649
0.4711576757894737 0.07337915254982064 0 95505.88058714059
0.4710400648506722 0.07341640915060814 0.0001217358623913935 95505.85702229397
0.4710400648506722 0.07341640915060814 0.01447826413760861 95505.85702229397
0.4711576757894737 0.07337915254982064 0.0144356415568709 95505.88058714059
0.4711576757894737 0.07337915254982064 0.0146 95505.88058714058
0.4596370318075052 0.071184329317019 0.01192470313340447 95497.86376902109
0.4596370318075052 0.071184329317019 0.002675296866595532 95497.86376902109
0.4709462604111748 0.07333153846725331 0 95505.84112163524
0.4709462604111747 0.07333153846725331 0.0146 95505.84112163524
0.4712330688900174 0.0734546062423653 0.0145219626660023 95505.90192784883
0.4714514139974141 0.07352281904761904 0.0146 95505.96760791671
0.4712330688900173 0.07345460624236529 7.803733399769983e-05 95505.90192784884
0.4714514139974141 0.07352281904761904 0.0003040403760510375 95505.96760791671
0.4714514139974141 0.07352281904761904 0 95505.96760791671
0.4852629663157895 0.07964948668702451 0 95504.29828586635
0.4820316629729803 0.07644637921492262 0.003344633612260454 95510.92439332342
0.4852629663157895 0.07964948668702451 0.00700907706537927 95504.29828586635
0.4820316629729803 0.07644637921492262 0.01125536638773955 95510.92439332345
0.4852629663157895 0.07964948668702451 0.0146 95504.29828586636
0.4887785076590826 0.0831040206894014 0.01096115941629692 95504.48962301209
0.4969100476600497 0.08628474857142857 0.0146 95511.82815443222
0.4887785076590827 0.08310402068940141 0.003638840583703085 95504.48962301211
0.4969100476600497 0.08628474857142857 0.01205557498507021 95511.82815443222
0.4969100476600497 0.08628474857142857 0 95511.82815443224
0.4993682568421051 0.08785301885739134 0 95511.50345232998
0.4986801992481216 0.08690727687074702 0.0007121895754942572 95514.38926040234
0.4993682568421052 0.08785301885739136 0.001794144540003838 95511.50345232998
0.4986801992481216 0.08690727687074704 0.01388781042450574 95514.38926040233
0.4993682568421052 0.08785301885739136 0.0146 95511.50345232998
0.513473547368421 0.0981855684849931 0 95519.93945443757
0.5070981905456694 0.09205292855391806 0.006598957280498091 95522.47845853958
0.513473547368421 0.0981855684849931 0.01361486681256772 95519.93945443755
0.5070981905456694 0.09205292855391806 0.008001042719501909 95522.47845853961
0.513473547368421 0.0981855684849931 0.0146 95519.93945443755
0.5034941215586808 0.09001767379118744 0.004270569595827922 95519.51702182462
0.5088785771105278 0.09488932405238233 0 95518.31800848825
0.5034941215586808 0.09001767379118744 0.01032943040417207 95519.51702182462
0.5088785771105278 0.09488932405238233 0.0146 95518.31800848823
0.5138355018542284 0.09871919546522176 0.01422535082259168 95520.0568442166
0.5144341588672424 0.09904667809523807 0.0146 95520.37702551413
0.5138355018542284 0.09871919546522176 0.0003746491774083184 95520.0568442166
0.5144341588672424 0.09904667809523807 0.0009943026594615555 95520.37702551414
0.5144341588672424 0.09904667809523807 0 95520.37702551416
0.3301047705263158 0.109909997641254 0 95190.49437375247
0.328930067270854 0.110745780864106 0.0133840968253901 95187.93056470709
0.328930067270854 0.110745780864106 0.001215903174609902 95187.93056470707
0.3301047705263158 0.109909997641254 0.01242793772492864 95190.49437375246
0.3301047705263158 0.109909997641254 0.0146 95190.49437375247
0.3167987200118121 0.1110854857035985 0.013772728548151 95186.85519998963
0.3167987200118121 0.1110854857035985 0.0008272714518490038 95186.85519998962
0.3280952711500089 0.1099904891357222 0 95189.42517795546
0.3280952711500088 0.1099904891357222 0.0146 95189.42517795546
0.3442100610526315 0.1091567973039919 0 95191.18874488282
0.3423301499075018 0.1101077356305969 0.01265415544843346 95187.41876822976
0.3423301499075018 0.1101077356305969 0.001945844551566534 95187.41876822979
0.3442100610526316 0.1091567973039919 0.0115662557274289 95191.18874488282
0.3442100610526316 0.1091567973039919 0.0146 95191.18874488282
0.3315417573215842 0.1105084767090429 0.01311261431504889 95187.90333850439
0.3315417573215842 0.1105084767090429 0.001487385684951106 95187.90333850439
0.3414050867984267 0.1092707737700052 0 95190.83742901498
0.3414050867984268 0.1092707737700052 0.0146 95190.83742901498
0.3583153515789474 0.1089250121658917 0 95190.45860084053
0.3562465009719148 0.109936790403161 0.01245858938486076 95186.48623597714
0.3562465009719148 0.109936790403161 0.002141410615139236 95186.48623597712
0.3583153515789474 0.1089250121658917 0.01130108712498917 95190.45860084055
0.3583153515789474 0.1089250121658917 0.0146 95190.45860084053
0.3461377423265747 0.110064515037861 0.01260470989611578 95186.9881177521
0.3461377423265746 0.110064515037861 0.00199529010388421 95186.9881177521
0.3551488483370422 0.1089436761144667 0 95190.97555874997
0.3551488483370422 0.1089436761144667 0.0146 95190.97555874995
0.372420642105263 0.1086031360590842 0 95190.41179683937
0.3701634321473398 0.1097663700380694 0.01226362377831244 95186.30314090944
0.3701634321473398 0.1097663700380694 0.002336376221687562 95186.30314090943
0.372420642105263 0.1086031360590842 0.01093285196504554 95190.41179683937
0.372420642105263 0.1086031360590842 0.0146 95190.41179683937
0.3604032429317346 0.1099195630617639 0.012438880830294 95186.39813581464
0.3604032429317346 0.1099195630617639 0.002161119169705999 95186.39813581464
0.3689470005366805 0.1086657890569968 0 95190.71831605138
0.3689470005366805 0.1086657890569968 0.0146 95190.71831605138
0.3865259326315789 0.1080270131420493 0 95190.90937737524
0.3837651975457248 0.1093107996842272 0.0117424387056565 95186.39419445489
0.3837651975457248 0.1093107996842272 0.002857561294343499 95186.39419445489
0.3865259326315789 0.1080270131420493 0.01027375142911035 95190.90937737524
0.3865259326315789 0.1080270131420493 0.0146 95190.90937737524
0.3749085237157583 0.1095576671143138 0.0120248618668673 95186.39951557425
0.3749085237157583 0.1095576671143138 0.002575138133132704 95186.39951557425
0.3825256259051893 0.1081892824856475 0 95190.92355230048
0.3825256259051893 0.1081892824856475 0.0146 95190.92355230046
0.4006312231578947 0.1077873520537116 0 95191.96904806892
0.397310234184741 0.1088039033100038 0.01116253524749561 95186.35189525504
0.397310234184741 0.1088039033100038 0.003437464752504392 95186.35189525504
0.4006312231578947 0.1077873520537115 0.009999572521978552 95191.96904806892
0.4006312231578947 0.1077873520537116 0.0146 95191.9690480689
0.3897391721053232 0.1089013909523265 0.01127406380399307 95186.35895948928
0.3897391721053232 0.1089013909523265 0.003325936196006924 95186.35895948931
0.3962686047889826 0.1078614767138414 0 95191.09934675277
0.3962686047889825 0.1078614767138414 0.0146 95191.09934675276
0.4147365136842104 0.1087399608210294 0 95191.47698443172
0.4120509613428521 0.1093788221673425 0.01182025830586899 95185.65987512478
0.4120509613428521 0.1093788221673424 0.002779741694131006 95185.65987512477
0.4147365136842104 0.1087399608210294 0.01108938327331459 95191.47698443173
0.4147365136842104 0.1087399608210294 0.0146 95191.47698443173
0.4038029782971675 0.1089389243978007 0.01131700310270181 95186.30494421492
0.4038029782971675 0.1089389243978007 0.003282996897298184 95186.30494421493
0.4111093119404983 0.1085268536604509 0 95190.15356344215