# U  POINT_DATA 702
# x y z  U_x U_y U_z
0.3442100610526315 0.04786321869576037 0 0.546065856392759 0.004848248055104677 -3.664604661763299e-22
0.3440145976014005 0.04791581706189817 0.0002023188662898764 0.5522625947730939 0.005085044437761941 -2.211829764412643e-22
0.3440145976014005 0.04791581706189817 0.01439768113371012 0.5522625947730939 0.005085044437761934 -2.211829764412659e-22
0.3442100610526316 0.04786321869576037 0.0142696890029453 0.5460658563927591 0.004848248055104669 -3.664604661763314e-22
0.3442100610526316 0.04786321869576037 0.0146 0.5460658563927592 0.004848248055104688 -3.664604661763296e-22
0.3320946015467737 0.04799896 0.0146 0.651980893578211 0.08741368167550781 6.320082639599516e-22
0.3320946015467739 0.04799895999999999 0.002059619604749602 0.6519808935782093 0.08741368167550655 6.320082639599356e-22
0.3320946015467739 0.04799895999999999 0 0.6519808935782092 0.08741368167550648 6.32008263959935e-22
0.3439084150564802 0.04787065092621296 0 0.5470438879174614 0.009756217374913353 -2.93495103705938e-22
0.3439084150564802 0.04787065092621295 0.0146 0.5470438879174612 0.009756217374913211 -2.934951037059458e-22
0.3443860267460394 0.04792411068846425 0.01441786272895549 0.5513116554559472 0.005729333737580786 -2.421144198208483e-22
0.3449959211563549 0.04799895999999999 0.0146 0.5517330536479325 0.007835310408794708 -2.366601164162058e-22
0.3443860267460393 0.04792411068846425 0.0001821372710445042 0.5513116554559471 0.005729333737580796 -2.421144198208475e-22
0.3449959211563548 0.04799895999999999 0.000813422275347988 0.5517330536479323 0.007835310408794659 -2.366601164162049e-22
0.3449959211563548 0.04799895999999999 0 0.5517330536479323 0.007835310408794658 -2.366601164162049e-22
0.1142608695652174 0.09861835446211001 0 0.4492591124859847 -0.3365249737799454 0
0.1140181211027188 0.0988026623701708 0.01432083926812665 0.4483988013191822 -0.3376637463649872 0
0.1140181211027188 0.0988026623701708 0.0002791607318733462 0.4483988013191821 -0.3376637463649871 0
0.1142608695652174 0.09861835446211001 0.01410998592869493 0.4492591124859848 -0.3365249737799454 0
0.1142608695652174 0.09861835446211001 0.0146 0.4492591124859848 -0.3365249737799454 0
0.1092138219283084 0.09904667809523809 0.0146 0.42937601613219 -0.3426456779842716 0
0.1092138219283084 0.09904667809523809 0.008795895217554726 0.42937601613219 -0.3426456779842716 0
0.1092138219283084 0.09904667809523809 0 0.42937601613219 -0.3426456779842716 0
0.1138510264374839 0.09863469539121442 0 0.4476898953603428 -0.3369242121166517 0
0.1138510264374839 0.09863469539121442 0.0146 0.4476898953603428 -0.3369242121166517 0
0.1269565217391304 0.09758525923701963 0 0.4991834467267262 -0.3179719139432682 0
0.1260946206490811 0.09818027747106955 0.01360881374644323 0.4962005568588039 -0.3220823464461919 0
0.1260946206490811 0.09818027747106957 0.0009911862535567674 0.496200556858804 -0.322082346446192 0
0.1269565217391304 0.09758525923701963 0.01292809644574655 0.4991834467267261 -0.3179719139432682 0
0.1269565217391304 0.09758525923701963 0.0146 0.4991834467267261 -0.3179719139432682 0
0.1145300285107463 0.09877611401184258 0.01429046721264172 0.4503790046374235 -0.3371202386454989 0
0.1145300285107463 0.09877611401184258 0.0003095327873582766 0.4503790046374235 -0.3371202386454989 0
0.1255637549472388 0.09764664039747045 0 0.493922525023796 -0.3196829238837642 0
0.1255637549472388 0.09764664039747045 0.0146 0.493922525023796 -0.3196829238837642 0
0.1396521739130435 0.0966477347444929 0 0.5486877880129984 -0.2956933378595032 0
0.1381687633218771 0.0975555233943998 0.01289407782015862 0.5436985383573874 -0.3029861323627115 0
0.1381687633218771 0.0975555233943998 0.001705922179841383 0.5436985383573875 -0.3029861323627115 0
0.1396521739130435 0.0966477347444929 0.01185554252156495 0.5486877880129983 -0.2956933378595032 0
0.1396521739130435 0.0966477347444929 0.0146 0.5486877880129983 -0.2956933378595032 0
0.1279246749291221 0.09807347068456926 0.01348662383150952 0.5031975770387268 -0.319645397710985 0
0.1279246749291221 0.09807347068456926 0.001113376168490485 0.5031975770387268 -0.3196453977109849 0
0.1373701456108723 0.09675273651864943 0 0.5402484701156594 -0.2991867071658625 0
0.1373701456108723 0.09675273651864945 0.0146 0.5402484701156591 -0.2991867071658626 0
0.1523478260869565 0.09583083086320018 0 0.5973482334833756 -0.2688258340021685 0
0.1502498230637249 0.09693772249717617 0.01218729652328369 0.5905296596352944 -0.279694112498146 0
0.1502498230637249 0.09693772249717617 0.002412703476716313 0.5905296596352945 -0.279694112498146 0
0.1523478260869565 0.09583083086320018 0.0109209819095022 0.5973482334833755 -0.2688258340021685 0
0.1523478260869565 0.09583083086320018 0.0146 0.5973482334833756 -0.2688258340021685 0
0.1413305230772888 0.0973595671491415 0.01266989846111785 0.5555552444340009 -0.2977774277591489 0
0.1413305230772888 0.0973595671491415 0.001930101538882153 0.5555552444340009 -0.2977774277591489 0
0.1492850661742375 0.09596792911731762 0 0.5863792139791902 -0.2746084156668133 0
0.1492850661742375 0.09596792911731762 0.0146 0.5863792139791902 -0.2746084156668132 0
0.1650434782608695 0.09516691487184599 0 0.6443341730304116 -0.2362947998929117 0
0.162364103764751 0.09635331598835727 0.01151871932946376 0.6360266820979306 -0.251361853797695 0
0.162364103764751 0.09635331598835727 0.003081280670536241 0.6360266820979306 -0.251361853797695 0
0.1650434782608695 0.09516691487184599 0.01016144367073608 0.6443341730304116 -0.2362947998929117 0
0.1650434782608695 0.09516691487184599 0.0146 0.6443341730304117 -0.2362947998929117 0
0.1547158368605379 0.09666630517779431 0.0118767876103813 0.6067722010744706 -0.270693749891869 0
0.1547158368605379 0.09666630517779431 0.002723212389618698 0.6067722010744706 -0.2706937498918691 0
0.1613293908963003 0.09531320142601285 0 0.6316435829830007 -0.2448597800514651 0
0.1613293908963003 0.09531320142601285 0.0146 0.6316435829830008 -0.2448597800514651 0
0.1777391304347826 0.09469266494441168 0 0.6875698434422874 -0.1972069278831566 0
0.1745681312757622 0.09585912481060802 0.01095335096712657 0.6787413029893063 -0.2171952025991783 0
0.1745681312757622 0.09585912481060802 0.003646649032873434 0.6787413029893065 -0.2171952025991783 0
0.1777391304347826 0.09469266494441168 0.009618888649755693 0.6875698434422874 -0.1972069278831566 0
0.1777391304347826 0.09469266494441167 0.0146 0.6875698434422876 -0.1972069278831565 0
0.168017181074721 0.09605745113664932 0.01118024176407075 0.6556863296427392 -0.2375647313030058 0
0.168017181074721 0.09605745113664932 0.003419758235929251 0.6556863296427392 -0.2375647313030058 0
0.1735371906406224 0.09482280217442864 0 0.6741477270510039 -0.208951704127504 0
0.1735371906406224 0.09482280217442865 0.0146 0.674147727051004 -0.2089517041275041 0
0.1904347826086956 0.09447567403503958 0 0.7244408914085589 -0.1503348385947074 0
0.1840470213610904 0.09555298912941955 0.00728469152175132 0.7086457613328925 -0.1867744828027805 0
0.1904347826086956 0.09447567403503958 0.009370645053760097 0.7244408914085592 -0.1503348385947073 0
0.1904347826086956 0.09447567403503959 0.0146 0.7244408914085593 -0.1503348385947072 0
0.1859572954440629 0.09454581631546932 0 0.7113798195364773 -0.1652842718593348 0
0.1859572954440629 0.09454581631546932 0.0146 0.7113798195364774 -0.1652842718593349 0
0.2031304347826087 0.09461911346533269 0 0.7540663831281549 -0.09781979247109264 1.085064035188742e-22
0.1968084513245802 0.09548418377110907 0.007309906341089075 0.7443292361997154 -0.1388228579320064 1.798047268570349e-23
0.2031304347826087 0.09461911346533269 0.009534743725389093 0.7540663831281549 -0.09781979247109274 1.08506403518874e-22
0.2031304347826087 0.09461911346533269 0.0146 0.7540663831281549 -0.09781979247109264 1.085064035188742e-22
0.1986790777847937 0.09457208289420065 0 0.742273336417548 -0.1151407162257627 5.238632930005072e-23
0.1986790777847937 0.09457208289420065 0.0146 0.742273336417548 -0.1151407162257628 5.238632930005077e-23
0.2158260869565218 0.09517291712660389 0 0.7798833307674334 -0.04142797267025234 2.101223707008973e-22
0.2128031866498171 0.09600799680945604 0.01112366464728956 0.7799994178362044 -0.06905056045970635 2.37714410023546e-22
0.2128031866498171 0.09600799680945604 0.003476335352710448 0.7799994178362043 -0.06905056045970634 2.377144100235459e-22
0.2158260869565218 0.09517291712660388 0.01016831041602736 0.7798833307674335 -0.04142797267025256 2.101223707008979e-22
0.2158260869565218 0.09517291712660388 0.0146 0.7798833307674335 -0.04142797267025244 2.101223707008972e-22
0.2063792217383064 0.0957809309245902 0.0073 0.7686556689737789 -0.09887332432423462 2.045330400191875e-22
0.211821781679185 0.09502146843754158 0 0.7702184488512925 -0.05893722059561007 1.606008301252495e-22
0.211821781679185 0.09502146843754157 0.0146 0.7702184488512926 -0.05893722059561005 1.606008301252496e-22
0.2285217391304348 0.09622391940464456 0 0.805109734178685 0.01890088315794823 9.823143544222098e-23
0.2264064856018995 0.09692038193602021 0.01216745844218438 0.8061605493225079 -0.002930498374523595 1.595549375613416e-22
0.2264064856018995 0.09692038193602021 0.002432541557815619 0.8061605493225079 -0.002930498374523596 1.595549375613416e-22
0.2285217391304348 0.09622391940464456 0.01137068606234059 0.805109734178685 0.01890088315794824 9.823143544222097e-23
0.2285217391304348 0.09622391940464456 0.0146 0.805109734178685 0.01890088315794824 9.823143544222096e-23
0.2184456570883798 0.0964134325598774 0.01158749434836324 0.7921937100806369 -0.04387259616872791 2.259528617238758e-22
0.2184456570883798 0.09641343255987739 0.003012505651636756 0.7921937100806368 -0.04387259616872797 2.259528617238762e-22
0.2255174638364227 0.09602671905358393 0 0.7985866453104888 0.004906045581687291 1.375954143798951e-22
0.2255174638364227 0.09602671905358393 0.0146 0.798586645310489 0.004906045581687435 1.375954143798948e-22
0.2412173913043479 0.09786695562855645 0 0.830816776924495 0.07603273549849188 -5.510424978972828e-22
0.2404074495556881 0.09823250806496375 0.01366856698904123 0.83086931300379 0.0672833195490989 -4.895998239693658e-22
0.2404074495556881 0.09823250806496375 0.0009314330109587728 0.8308693130037899 0.06728331954909889 -4.895998239693656e-22
0.2412173913043479 0.09786695562855645 0.01325036490121513 0.8308167769244952 0.0760327354984919 -5.51042497897283e-22
0.2412173913043479 0.09786695562855645 0.0146 0.830816776924495 0.0760327354984919 -5.51042497897283e-22
0.2302248026177892 0.09733472380549701 0.01264147698954239 0.8122179700562149 0.01628889864651411 5.838340460294506e-23
0.2302248026177892 0.09733472380549701 0.001958523010457615 0.8122179700562149 0.0162888986465141 5.838340460294508e-23
0.2399255312285855 0.09774807389470878 0 0.8281515680272595 0.06999522421502979 -4.874970634727823e-22
0.2399255312285855 0.09774807389470878 0.0146 0.8281515680272598 0.06999522421502982 -4.874970634727825e-22
0.2418535890125542 0.09840715913204366 0.01386837263556273 0.8332768912218684 0.07471838405372599 -6.27338057159387e-22
0.2418535890125542 0.09840715913204366 0.0007316273644372666 0.8332768912218683 0.07471838405372598 -6.273380571593869e-22
0.2475806517863445 0.09904667809523809 0.0146 0.8455835463660533 0.09847236176940849 -7.516445471752751e-22
0.2475806517863445 0.09904667809523809 0.007317749554296109 0.8455835463660532 0.0984723617694085 -7.516445471752746e-22
0.2475806517863445 0.09904667809523811 0 0.8455835463660533 0.0984723617694086 -7.516445471752758e-22
0.01269565217391304 0.1036412722675026 0 0.05333468747896882 -0.3926828999379333 0
0.01269565217391304 0.1036412722675026 0.005256342686261589 0.05333468747896881 -0.3926828999379333 0
0.006349645647846807 0.10274983456252 0.007300697498341276 0.02868856916168938 -0.3120747255671258 0
0.01269565217391304 0.1036412722675026 0.0146 0.05333468747896882 -0.3926828999379333 0
0 0.1036512436885774 0.0146 0 0 0
0 0.1036512436885775 0.005267750267491468 0 0 0
0 0.1036512436885775 0 0 0 0
0.004577620650605843 0.1036481961054594 0 0.01990175127173958 -0.1511966245045254 0
0.00457762065060584 0.1036481961054594 0.0146 0.01990175127173956 -0.1511966245045253 0
0.02539130434782608 0.1035205861740728 0 0.1012750081216679 -0.3912691706671056 1.484831656973466e-22
0.02539130434782608 0.1035205861740728 0.005118274460701526 0.1012750081216679 -0.3912691706671056 1.484831656973466e-22
0.01906552354906504 0.1027101109892969 0.007308450693808271 0.07527935275740368 -0.3901581705714168 4.175142257178949e-23
0.02539130434782608 0.1035205861740728 0.0146 0.1012750081216679 -0.3912691706671056 1.484831656973466e-22
0.0172287805823964 0.1036034715926463 0 0.07082607685130751 -0.3920739494346154 2.258910050989517e-23
0.0172287805823964 0.1036034715926463 0.0146 0.07082607685130751 -0.3920739494346155 2.25891005098951e-23
0.03808695652173913 0.1032214030775181 0 0.1524505325451509 -0.3892069038856909 2.130393028565835e-22
0.03808695652173913 0.1032214030775181 0.004776000731517428 0.1524505325451509 -0.3892069038856909 2.130393028565835e-22
0.03179747282362493 0.1024566078479926 0.007322364582389555 0.1250753914558766 -0.3882619669219564 2.732044961545905e-22
0.03808695652173913 0.1032214030775181 0.0146 0.1524505325451508 -0.3892069038856909 2.130393028565839e-22
0.02975339535480627 0.1034315412944609 0 0.119667259174446 -0.3908170406798412 7.280268695642154e-23
0.02975339535480627 0.1034315412944609 0.0146 0.119667259174446 -0.3908170406798412 7.280268695642148e-23
0.05078260869565217 0.1027771784669864 0 0.2026101998771556 -0.3853018066026882 -1.287075937525463e-23
0.05078260869565217 0.1027771784669864 0.004267795502702888 0.2026101998771556 -0.3853018066026882 -1.287075937525458e-23
0.04789089955698335 0.1019534833326151 0.003325465509469143 0.1880812101324547 -0.3836800750400562 2.304315754166498e-22
0.04789089955698335 0.1019534833326151 0.01127453449053085 0.1880812101324546 -0.3836800750400562 2.304315754166499e-22
0.05078260869565217 0.1027771784669864 0.0146 0.2026101998771556 -0.3853018066026881 -1.287075937525449e-23
0.0421220868911926 0.1031028737667107 0 0.1690570785629978 -0.3881087910520594 1.012370690886896e-22
0.04116906422842873 0.1021448758718269 0.003544423862693031 0.1618200887518249 -0.3856902166101229 3.325071034089168e-22
0.04116906422842871 0.1021448758718269 0.01105557613730698 0.1618200887518249 -0.3856902166101229 3.325071034089175e-22
0.04212208689119259 0.1031028737667108 0.0146 0.1690570785629977 -0.3881087910520594 1.012370690886898e-22
0.06347826086956521 0.1021996739373319 0 0.252575117192689 -0.379988126724338 -7.527582353316971e-23
0.06347826086956521 0.1021996739373319 0.00360711436375559 0.252575117192689 -0.379988126724338 -7.527582353316967e-23
0.0611305550941484 0.1014066400127577 0.002699861641729329 0.2397751199416273 -0.3781514237425663 1.353065063341253e-37
0.0611305550941484 0.1014066400127577 0.01190013835827067 0.2397751199416273 -0.3781514237425663 2.114164161470707e-37
0.06347826086956521 0.1021996739373319 0.0146 0.252575117192689 -0.3799881267243381 -7.527582353316998e-23
0.05436404191901656 0.1026468081054728 0 0.2174714404425177 -0.3840714108605949 5.744774144606952e-23
0.05340265887963836 0.1016804061888276 0.00301305771158412 0.2095749903244902 -0.3812785384524373 1.173019673165848e-22
0.05340265887963836 0.1016804061888276 0.01158694228841588 0.2095749903244902 -0.3812785384524373 1.173019673165849e-22
0.05436404191901656 0.1026468081054728 0.0146 0.2174714404425177 -0.3840714108605948 5.744774144606959e-23
0.07617391304347826 0.1014915355384158 0 0.3024673227432606 -0.3729571448162693 0
0.07617391304347826 0.1014915355384158 0.00279698446882971 0.3024673227432606 -0.3729571448162693 0
0.07443817390054853 0.1007914786230363 0.00199610001436918 0.2919566437028693 -0.3710966671890609 0
0.07443817390054853 0.1007914786230363 0.01260389998563082 0.2919566437028693 -0.3710966671890609 0
0.07617391304347826 0.1014915355384158 0.0146 0.3024673227432607 -0.3729571448162694 0
0.0664899204607507 0.1020740599836132 0 0.2653715821540966 -0.3786630675589094 -2.706130126682506e-37
0.06557693041467699 0.1011563036947418 0.002413469976878556 0.2572050898462671 -0.3757149612647652 -1.709783824642539e-38
0.06557693041467699 0.1011563036947418 0.01218653002312144 0.2572050898462672 -0.3757149612647653 0
0.0664899204607507 0.1020740599836132 0.0146 0.2653715821540966 -0.3786630675589094 0
0.08886956521739131 0.100655055719309 0 0.351954397764118 -0.3637304456123293 0
0.08886956521739131 0.100655055719309 0.001840028443004968 0.351954397764118 -0.3637304456123293 0
0.08778536773775278 0.1001365356020049 0.001246827101584308 0.3445365962490846 -0.3622216742051942 0
0.08778536773775278 0.1001365356020049 0.01335317289841569 0.3445365962490845 -0.3622216742051943 0
0.08886956521739131 0.100655055719309 0.0146 0.3519543977641179 -0.3637304456123292 0
0.07850199338144417 0.1013869121211778 0 0.3125737096555111 -0.3716048438974738 0
0.07771551769081733 0.1005963306529337 0.001772845344439938 0.3048947639151295 -0.3688860067389826 0
0.07771551769081733 0.1005963306529337 0.01282715465556006 0.3048947639151295 -0.3688860067389826 0
0.07850199338144417 0.1013869121211779 0.0146 0.3125737096555112 -0.3716048438974739 0
0.1015652173913043 0.09969184939709992 0 0.4006002540420058 -0.351785633549238 0
0.1015652173913043 0.09969184939709992 0.0007380937960525013 0.4006002540420058 -0.351785633549238 0
0.1011527595713949 0.09946128914137586 0.0004743264928957958 0.3974072230793178 -0.3510790787528557 0
0.1011527595713949 0.09946128914137586 0.0141256735071042 0.3974072230793178 -0.3510790787528557 0
0.1015652173913043 0.09969184939709992 0.0146 0.4006002540420058 -0.3517856335492381 0
0.09039968354318825 0.1005847843673235 0 0.3586538960644916 -0.362560955956025 0
0.08983262953233381 0.1000147700645067 0.001107523962183877 0.352686080114447 -0.3605290222151097 0
0.08983262953233381 0.1000147700645067 0.01349247603781612 0.3526860801144471 -0.3605290222151099 0
0.09039968354318825 0.1005847843673235 0.0146 0.3586538960644917 -0.3625609559560249 0
0.102179699841986 0.099664368436923 0 0.4032804488731392 -0.3511635561799772 0
0.1019337009649643 0.09941708532862098 0.0004237561097090364 0.4005448468684529 -0.3502855655162798 0
0.102179699841986 0.099664368436923 0.0146 0.4032804488731391 -0.3511635561799772 0
0.1019337009649643 0.09941708532862098 0.01417624389029096 0.4005448468684529 -0.3502855655162798 0
0.2539130434782608 0.1002035719943728 0 0.8610378751610928 0.1225027310032472 -8.31019447302594e-22
0.2539130434782608 0.1002035719943728 0.00132351858673522 0.8610378751610926 0.1225027310032472 -8.310194473025939e-22
0.2532964999161891 0.09966644030829605 0.0007090250963825271 0.857614040869265 0.1226899933772453 -9.491828551840375e-22
0.253296499916189 0.09966644030829602 0.01389097490361746 0.8576140408692648 0.1226899933772451 -9.491828551840383e-22
0.2539130434782608 0.1002035719943728 0.0146 0.8610378751610928 0.1225027310032472 -8.310194473025934e-22
0.2666086956521739 0.1022972055636076 0 0.9079440747371385 0.1598502093970334 -3.234028052828694e-22
0.2666086956521739 0.1022972055636076 0.003718693239110501 0.9079440747371385 0.1598502093970334 -3.234028052828694e-22
0.2647586739385116 0.1009063578032084 0.002127524970711552 0.8882484260222339 0.1587914433191311 -4.533291342304439e-22
0.2647586739385117 0.1009063578032083 0.01247247502928845 0.8882484260222341 0.1587914433191312 -4.533291342304416e-22
0.2666086956521739 0.1022972055636076 0.0146 0.9079440747371383 0.1598502093970333 -3.234028052828693e-22
0.2552169784606552 0.100357420239162 0 0.8681452286259455 0.1262143529866398 -8.607159296407921e-22
0.2546816548112242 0.09981930194536498 0.0008839030329079011 0.8607774895106034 0.1264632962619858 -9.036917342322545e-22
0.2546816548112242 0.09981930194536494 0.01371609696709209 0.8607774895106033 0.1264632962619858 -9.036917342322545e-22
0.2552169784606552 0.100357420239162 0.0146 0.8681452286259457 0.1262143529866397 -8.6071592964079e-22
0.2793043478260869 0.1042452798545325 0 0.9642242084191264 0.177014335539329 0
0.2793043478260869 0.1042452798545325 0.005947344055152135 0.9642242084191264 0.177014335539329 0
0.2758905504942027 0.1024782970748125 0.007299999999999999 0.9283168554855299 0.1791785002899847 -8.858484794580248e-37
0.2793043478260869 0.1042452798545325 0.0146 0.9642242084191266 0.177014335539329 0
0.2704166071734569 0.1028744687279534 0 0.9220380910199739 0.1621104235905827 -2.659905927847397e-22
0.2692771824349985 0.101729095649777 0.00306875980024826 0.9012279113929937 0.1663661957575622 -2.202291180205959e-22
0.2692771824349984 0.101729095649777 0.01153124019975174 0.9012279113929936 0.166366195757562 -2.202291180205981e-22
0.2704166071734569 0.1028744687279534 0.0146 0.9220380910199737 0.1621104235905825 -2.659905927847414e-22
0.292 0.1059329561703939 0 1.002862144491388 0.1660434729142455 0
0.292 0.1059329561703939 0.007878092392666859 1.002862144491389 0.1660434729142455 0
0.2856100384951704 0.1051008378607518 0.007283848089815323 0.9643677874625933 0.1765984152394288 0
0.2919999999999999 0.1059329561703939 0.0146 1.002862144491388 0.1660434729142455 0
0.2852845589359136 0.1050581087547776 0 0.974512164427084 0.1681732911596204 0
0.2852845589359136 0.1050581087547776 0.0146 0.9745121644270841 0.1681732911596203 0
0.31599948 0.04800183604170374 0 0.0001943718572547713 3.996347196682256e-05 2.802666117016064e-25
0.3159988152154429 0.04800037401958147 1.617677471974661e-06 0.0001462682738858327 6.90911130446457e-05 6.578188517935726e-26
0.31599948 0.04800183604170374 3.290271176975779e-06 0.0001943718572547713 3.996347196682255e-05 2.802666117016063e-25
0.3159988152154429 0.04800037401958147 0.01459838232252802 0.0001462682738858327 6.90911130446457e-05 6.578188517935726e-26
0.31599948 0.04800183604170375 0.0146 0.00019437185725531 3.996347196693331e-05 2.802666117023831e-25
0.3159981502869724 0.04799895999999999 0 0 0 0
0.3159981502869723 0.04799895999999999 0.01459676429485906 0 0 0
0.3159981502869723 0.04799896 0.0146 7.1776943353485e-16 3.39044741247548e-16 3.228056584498676e-37
0.2979998699999999 0.1067204986565226 0 1.026258010097034 0.1421274986737708 0
0.2950442003900061 0.1071222443825404 0.007335904927611776 0.9953302467334675 0.1546937181546979 0
0.2979998699999999 0.1067204986565226 0.008779062757377635 1.026258010097034 0.1421274986737708 0
0.2979998699999999 0.1067204986565226 0.0146 1.026258010097034 0.1421274986737707 0
0.2954614389466279 0.1064092775995333 0 1.012498953910328 0.15094854841773 0
0.2954614389466279 0.1064092775995333 0.0146 1.012498953910328 0.1509485484177302 0
0.30399974 0.1075949267834667 0 1.04541317498025 0.1063359332193553 0
0.3010692951576518 0.1078254904387985 0.007356365460235915 1.018938976335266 0.1261660813379899 0
0.30399974 0.1075949267834667 0.009779432695917481 1.04541317498025 0.1063359332193553 0
0.30399974 0.1075949267834667 0.0146 1.04541317498025 0.1063359332193552 0
0.3018855141422987 0.1073115766178093 0 1.035658391700498 0.1174148848734213 0
0.3018855141422987 0.1073115766178093 0.0146 1.035658391700498 0.1174148848734213 0
0.3099996099999999 0.1094290372369507 0 1.061527616370903 0.05622389328873016 0
0.3090691488948039 0.1098294848965287 0.01233582892031591 1.048841527400161 0.06479273496838237 0
0.3090691488948039 0.1098294848965287 0.002264171079684092 1.048841527400161 0.06479273496838235 0
0.30999961 0.1094290372369507 0.01187770573299291 1.061527616370904 0.05622389328872986 0
0.30999961 0.1094290372369507 0.0146 1.061527616370904 0.05622389328872986 0
0.3053401975413685 0.1089574083976306 0.01133814930923849 1.035629774177951 0.09873989513331431 0
0.3053401975413685 0.1089574083976306 0.003261850690761509 1.035629774177951 0.09873989513331431 0
0.3087078364068101 0.1090609608271992 0 1.057037817967288 0.0650778514501045 0
0.3087078364068101 0.1090609608271992 0.0146 1.057037817967288 0.06507785145010452 0
0.3105917516260523 0.1105491020464612 0.01315909082357377 1.055766369083384 0.05171982336242575 0
0.3105917516260523 0.1105491020464612 0.001440909176426227 1.055766369083383 0.05171982336242574 0
0.3156646891034895 0.1110964958855468 0.01378532450052211 1.088624326559785 -3.467598664558084e-05 0
0.3156646891034895 0.1110964958855468 0.0008146754994778873 1.088624326559785 -3.467598664558258e-05 0
0.31599948 0.1105829304103212 0 1.095787162968848 -0.003715613958896972 1.122383481404446e-23
0.31599948 0.1105829304103212 0.01319779140654087 1.095787162968848 -0.003715613958896972 1.122383481404446e-23
0.31599948 0.1105829304103212 0.0146 1.095787162968847 -0.003715613958896981 1.122383481404444e-23
0.3153706834299792 0.1104711357219201 0 1.09211393468138 0.002100896931891508 0
0.3153706834299792 0.1104711357219201 0.0146 1.09211393468138 0.002100896931891495 0
0.3301047705263158 0.04804213105496625 0 0.6690131732858065 0.1005850044563912 7.755791921500174e-22
0.3300795086874657 0.04802181594943587 2.614783768717447e-05 0.6680429951601692 0.1010607178357576 7.895479465112269e-22
0.3301047705263158 0.04804213105496625 4.938887974043476e-05 0.6690131732858065 0.1005850044563911 7.755791921500171e-22
0.3300795086874656 0.04802181594943587 0.01457385216231283 0.668042995160167 0.1010607178357576 7.895479465112345e-22
0.3301047705263158 0.04804213105496626 0.0146 0.6690131732858063 0.1005850044563911 7.755791921500169e-22
0.3160011663465983 0.04800048574216032 1.745491189186711e-06 0.0001355702768157936 5.380487127546256e-05 1.196191674920462e-24
0.3160026646320336 0.04800184133374468 0 0.0001914150387808745 2.070767178812106e-05 2.533721028363075e-25
0.3160011663465983 0.04800048574216032 0.01459825450881081 0.0001355702768156219 5.380487127541392e-05 1.196191674920659e-24
0.3160026646320336 0.04800184133374469 0.0146 0.0001914150387797897 2.070767178810568e-05 2.533721028353341e-25
0.3301282268188486 0.04802018235991064 2.427896613262066e-05 0.6680927590169484 0.1006709467877615 7.712622055216349e-22
0.3301541736699924 0.0480436580823741 0 0.6690635610377106 0.1002935893983581 7.70987363695777e-22
0.3301282268188486 0.04802018235991065 0.01457572103386738 0.6680927590169483 0.1006709467877615 7.712622055216346e-22
0.3301541736699924 0.04804365808237411 0.0146 0.6690635610377105 0.1002935893983581 7.709873636957764e-22
0.3583153515789473 0.05245238962215143 0 0.6680794989920456 -0.00376162982097248 -2.197157499064613e-22
0.3561809065475592 0.04993012455220823 0.002209305607716895 0.5477487356842291 0.02569943399874704 -3.484577680960846e-22
0.3583153515789473 0.05245238962215143 0.005094846540415781 0.6680794989920456 -0.00376162982097248 -2.197157499064613e-22
0.3561809065475592 0.04993012455220822 0.0123906943922831 0.5477487356842287 0.02569943399874708 -3.484577680960849e-22
0.3583153515789473 0.05245238962215144 0.0146 0.6680794989920458 -0.00376162982097252 -2.197157499064612e-22
0.372420642105263 0.05681624990295513 0 0.8844887634336199 -0.06334261474714678 0
0.3683236270099676 0.05705406634235181 0.00424070814278619 0.8158459637282931 -0.06178679618400104 -1.725817303190077e-37
0.3683236270099676 0.05705406634235181 0.01035929185721381 0.8158459637282931 -0.06178679618400104 -1.650781768268768e-37
0.372420642105263 0.05681624990295513 0.01008722327944006 0.8844887634336198 -0.06334261474714674 0
0.372420642105263 0.05681624990295513 0.0146 0.88448876343362 -0.06334261474714681 0
0.363521686718645 0.0560503958259877 0.009211065054082092 0.732318059687325 -0.03683391943119421 -3.538664259264796e-23
0.363521686718645 0.05605039582598769 0.005388934945917906 0.7323180596873248 -0.03683391943119416 -3.538664259264789e-23
0.3656729593069518 0.05465584318248026 0 0.789081101821178 -0.04359082091697861 -1.267858689823911e-22
0.3656729593069518 0.05465584318248026 0.0146 0.7890811018211779 -0.04359082091697861 -1.267858689823911e-22
0.386525932631579 0.05723720734689061 0 1.016982669860469 -0.1312349792004828 0
0.3840272239147356 0.05850015306571318 0.002586344974451308 1.072962533911734 -0.1442318227467362 0
0.3840272239147356 0.05850015306571318 0.01201365502554869 1.072962533911734 -0.1442318227467362 0
0.386525932631579 0.0572372073468906 0.01056881022677367 1.016982669860468 -0.1312349792004827 0
0.386525932631579 0.05723720734689061 0.0146 1.016982669860469 -0.1312349792004829 0
0.3751077501700151 0.05832969651284337 0.01181864801918212 0.9974067821818708 -0.1116100611500896 0
0.3751077501700151 0.05832969651284338 0.002781351980817877 0.997406782181871 -0.1116100611500896 0
0.3825045043076602 0.05712245437359731 0 0.9769062951330361 -0.1032068692526432 0
0.3825045043076602 0.05712245437359731 0.0146 0.9769062951330361 -0.1032068692526432 0
0.4006312231578947 0.0566242264798214 0 1.063498452852413 -0.1894242620978477 0
0.3972744804730322 0.05772383661845777 0.003474472440504377 1.139870643658937 -0.18926066007543 0
0.3972744804730322 0.05772383661845778 0.01112552755949562 1.139870643658937 -0.18926066007543 0
0.4006312231578947 0.05662422647982139 0.009867543177577568 1.063498452852413 -0.1894242620978477 0
0.4006312231578947 0.0566242264798214 0.0146 1.063498452852413 -0.1894242620978477 0
0.3895969477328997 0.05798235205118595 0.01142127635757428 1.116689657233246 -0.1672566303229902 0
0.3895969477328997 0.05798235205118595 0.00317872364242572 1.116689657233246 -0.1672566303229902 0
0.396259478935148 0.05680550189370542 0 1.03529180206832 -0.1557967287569719 0
0.396259478935148 0.05680550189370542 0.0146 1.03529180206832 -0.155796728756972 0
0.4147365136842104 0.05722571883235991 0 1.097089792280597 -0.227085051930251 0
0.4113971426927553 0.05773955386487396 0.003456491476321186 1.164981870216741 -0.2223197862646114 0
0.4113971426927553 0.05773955386487396 0.01114350852367882 1.164981870216741 -0.2223197862646114 0
0.4147365136842104 0.05722571883235991 0.0105556670487115 1.097089792280598 -0.227085051930251 0
0.4147365136842104 0.05722571883235991 0.0146 1.097089792280598 -0.227085051930251 0