# p  POINT_DATA 283
# x y z  p
0.2412173913043478 0.06004410196596525 0 98288.12123471017
0.2409049690987891 0.06044683632556539 0.01424071446360756 98274.04069667569
0.2409049690987891 0.06044683632556539 0.0003592855363924407 98274.04069667569
0.2412173913043478 0.06004410196596526 0.01377997522827548 98288.12123471017
0.2412173913043478 0.06004410196596526 0.0146 98288.12123471017
0.2401913316326854 0.06076088952380953 0.0146 98277.98084400782
0.2401913316326854 0.06076088952380952 0.01342003137758819 98277.98084400783
0.2401913316326854 0.06076088952380953 0 98277.98084400783
0.2406155605645203 0.06015591694093403 0 98293.88154773503
0.2406155605645203 0.06015591694093403 0.0146 98293.88154773503
0.2539130434782608 0.05382253001093086 0 98422.21756480116
0.2498255554783062 0.05665206289007232 0.007299999999999999 98193.36040023174
0.2539130434782608 0.05382253001093086 0.00666232500351642 98422.21756480116
0.2539130434782608 0.05382253001093086 0.0146 98422.21756480115
0.2420828905163977 0.05989087199373025 0.01360467590614262 98253.51329618676
0.2420828905163977 0.05989087199373025 0.0009953240938573769 98253.51329618675
0.2487669234556458 0.05558790430414309 0 98402.82000513627
0.2487669234556458 0.05558790430414309 0.0146 98402.82000513625
0.2666086956521739 0.05311124347490128 0 98499.03367616684
0.2666086956521739 0.05311124347490128 0.005848593552746599 98499.03367616684
0.2639154676109431 0.05070624797409554 0.003097212247415391 98485.23180810201
0.2639154676109431 0.05070624797409554 0.01150278775258461 98485.23180810199
0.2666086956521739 0.05311124347490128 0.0146 98499.03367616683
0.2593833589728957 0.05349783314642895 0 98438.24320372651
0.2568013018639826 0.05090229646985638 0.003321497143580047 98426.01810095426
0.2568013018639826 0.05090229646985638 0.01127850285641995 98426.01810095423
0.2593833589728957 0.05349783314642896 0.0146 98438.24320372648
0.272332775063641 0.05500692769206244 0.007299999999999998 98237.66852107109
0.2773012179176846 0.06076088952380952 0.0146 98207.20055592741
0.2773012179176846 0.06076088952380953 0.0122964006053374 98207.20055592741
0.2773012179176846 0.06076088952380953 0 98207.20055592743
0.2285217391304347 0.06873836238971084 0 98304.53157873821
0.2265546222144818 0.07154543284464249 0.01233781554665413 98250.53247154789
0.2265546222144817 0.07154543284464249 0.002262184453345873 98250.53247154788
0.2285217391304347 0.06873836238971086 0.009126449384073396 98304.53157873821
0.2285217391304347 0.06873836238971086 0.0146 98304.53157873821
0.2231132929662375 0.07352281904761904 0.0146 98278.65043663952
0.2231132929662375 0.07352281904761904 0.008380286911173131 98278.65043663952
0.2231132929662375 0.07352281904761904 0 98278.65043663951
0.225173952327749 0.07015755520363906 0 98345.64860242908
0.225173952327749 0.07015755520363906 0.0146 98345.64860242909
0.2335089752740938 0.06577416141501276 0 98345.06211237216
0.2320060556274722 0.06426339581215981 0.007299999999999999 98301.88697187674
0.2335089752740938 0.06577416141501276 0.0146 98345.06211237214
0.2793043478260869 0.06273800563109402 0 98202.82271423159
0.2793043478260869 0.06273800563109402 0.00226187545641115 98202.8227142316
0.2786393950883743 0.0614293136314571 0.0007646956483694348 98205.80737391338
0.2786393950883743 0.0614293136314571 0.01383530435163057 98205.80737391337
0.2793043478260869 0.06273800563109402 0.0146 98202.8227142316
0.2832067087739646 0.06960008591732625 0.007299999999999999 98160.61762300944
0.2888926212843478 0.070399218335367 0.01102651447699998 98155.75793083804
0.2888926212843478 0.070399218335367 0.003573485523000025 98155.75793083801
0.292 0.06684734296754989 0 98163.93717595152
0.292 0.06684734296754989 0.006963070914380308 98163.93717595155
0.292 0.06684734296754991 0.0146 98163.93717595156
0.2822720358607294 0.06374407030317766 0 98196.66028139598
0.2822720358607295 0.06374407030317766 0.0146 98196.66028139598
0.2158260869565218 0.08057861605598625 0 98277.53680658084
0.2136285055388415 0.08407569473228062 0.01207278136966764 98240.21782472069
0.2136285055388415 0.0840756947322806 0.00252721863033236 98240.21782472068
0.2158260869565218 0.08057861605598626 0.008072026736236883 98277.53680658084
0.2158260869565218 0.08057861605598626 0.0146 98277.53680658084
0.2104931600568974 0.08628474857142857 0.0146 98266.95513814413
0.2104931600568974 0.08628474857142857 0.008467134065432 98266.95513814413
0.2104931600568974 0.08628474857142855 0 98266.95513814414
0.212223191456929 0.08266304424166337 0 98324.32031479014
0.212223191456929 0.08266304424166337 0.0146 98324.32031479014
0.2200477790118708 0.07776655034582654 0 98301.490462124
0.2184794905378676 0.07619007465918504 0.003051414118547741 98286.63945177362
0.2200477790118708 0.07776655034582654 0.0146 98301.490462124
0.2184794905378676 0.07619007465918504 0.01154858588145226 98286.63945177362
0.2031304347826087 0.09540103875592969 0 98249.11250939374
0.2019143577030567 0.09782425251424645 0.01320151135851516 98229.68823164603
0.2019143577030567 0.09782425251424645 0.001398488641484839 98229.68823164605
0.2031304347826087 0.0954010387559297 0.01042928786320284 98249.11250939373
0.2031304347826087 0.09540103875592969 0.0146 98249.11250939373
0.2002212938223142 0.09904667809523808 0.0146 98245.70781859863
0.2002212938223142 0.09904667809523808 0.01125448789566135 98245.70781859863
0.2002212938223142 0.09904667809523808 0 98245.70781859866
0.2009304832292885 0.09683524174721353 0 98277.2793267817
0.2009304832292885 0.09683524174721353 0.0146 98277.27932678169
0.2077551036205109 0.09093356038288786 0 98285.37634652713
0.2062469989241896 0.08941758266190666 0.003584048762818019 98263.40551904464
0.2077551036205109 0.09093356038288786 0.0146 98285.37634652713
0.2062469989241896 0.08941758266190666 0.01101595123718198 98263.40551904464
0.193413518234598 0.1088143215747325 0.01117445403021232 98203.17023655894
0.1921806876803146 0.1118086076190476 0.0146 98223.32596566026
0.193413518234598 0.1088143215747325 0.003425545969787675 98203.17023655894
0.1921806876803146 0.1118086076190476 0.002007790832361728 98223.32596566026
0.1921806876803146 0.1118086076190476 0 98223.32596566026
0.1957247040851389 0.1043642154807986 0.007299999999999999 98204.2031052668
0.1964547620165945 0.1050980846623031 0 98275.92717481486
0.1964547620165945 0.1050980846623031 0.0146 98275.92717481489
0.1904347826086957 0.1144869359418495 0 98220.43464286251
0.1873953229228932 0.121515210030133 0.0111046213613272 98193.75181590093
0.1873953229228932 0.121515210030133 0.003495378638672799 98193.75181590095
0.1904347826086957 0.1144869359418495 0.003064081606151638 98220.43464286253
0.1904347826086957 0.1144869359418495 0.0146 98220.43464286253
0.1845128552745438 0.1245705371428571 0.0146 98224.50253217461
0.1845128552745438 0.1245705371428571 0.007789783565725366 98224.50253217461
0.1845128552745438 0.1245705371428571 0 98224.50253217461
0.18610393266883 0.1202170781039958 0 98261.52311557528
0.18610393266883 0.1202170781039958 0.0146 98261.52311557531
0.1918343222993666 0.1132154535733512 0 98224.93451889281
0.1911999035996594 0.1125777229059274 0.000879889139608195 98224.28259869636
0.1918343222993666 0.1132154535733512 0.0146 98224.93451889281
0.1911999035996594 0.1125777229059274 0.01372011086039181 98224.28259869634
0.1778224822302848 0.1372486797351007 0.01450414543517249 98198.31953523219
0.1778242853267444 0.1373324666666667 0.0146 98198.60684270455
0.1778224822302848 0.1372486797351005 9.585456482752665e-05 98198.31953523219
0.1778242853267444 0.1373324666666666 9.792812575604627e-05 98198.60684270454
0.1778242853267444 0.1373324666666666 0 98198.60684270454
0.1812268670935175 0.1280764814477776 0.007300000000000003 98213.54871447457
0.1825925708327919 0.1294493148109061 0 98235.5735468088
0.1825925708327919 0.1294493148109061 0.0146 98235.57354680878
0.1777391304347826 0.1374779935414648 0 98198.48532805413
0.1741002562450359 0.1464365253446618 0.007299999999999994 98176.36323145269
0.1777391304347826 0.1374779935414648 0.0001664867658209409 98198.48532805413
0.1777391304347826 0.1374779935414649 0.0146 98198.48532805413
0.1713996539131636 0.1500943961904762 0.0146 98206.70232639453
0.1713996539131636 0.1500943961904762 0.007309602000138246 98206.70232639453
0.1713996539131636 0.1500943961904762 0 98206.70232639453
0.1730710990055981 0.1454019954143592 0 98232.29528237352
0.1730710990055981 0.1454019954143593 0.0146 98232.29528237351
0.1778118358559518 0.137405551644756 0 98198.64961080908
0.1777779183735868 0.1373714570969818 4.460612962483895e-05 98198.63623539223
0.1778118358559519 0.1374055516447561 0.0146 98198.64961080908
0.1777779183735868 0.1373714570969819 0.01455539387037517 98198.63623539223
0.1667339478529996 0.1611570310658992 0.01265595996905044 98182.93740106432
0.1670055828065748 0.1628563257142857 0.0146 98187.75317166456
0.1667339478529996 0.1611570310658992 0.001944040030949556 98182.93740106432
0.1670055828065748 0.1628563257142857 0.002256420227561096 98187.75317166456
0.1670055828065748 0.1628563257142857 0 98187.75317166456
0.168528767173845 0.1535978799712389 0.0073 98197.05514150327
0.1698692498832736 0.1549453606387357 0 98214.18845150949
0.1698692498832736 0.1549453606387357 0.0146 98214.1884515095
0.1650434782608695 0.1686221249577978 0 98180.86788542813
0.1638714518411665 0.1744401102823735 0.01325216961734153 98170.52009430117
0.1638714518411665 0.1744401102823735 0.001347830382658468 98170.52009430116
0.1650434782608695 0.1686221249577978 0.00659623364932577 98180.86788542813
0.1650434782608695 0.1686221249577978 0.0146 98180.86788542813
0.1626402055567561 0.1756182552380952 0.0146 98178.27662648924
0.1626402055567561 0.1756182552380952 0.01183623639026954 98178.27662648924
0.162640205556756 0.1756182552380952 0 98178.27662648924
0.1630386519413276 0.1736029627704861 0 98188.42545300358
0.1630386519413276 0.1736029627704861 0.0146 98188.42545300358
0.1667568179105455 0.1645786098128091 0 98188.59395024946
0.1660284831214717 0.1638464727693102 0.001132755589692516 98187.71616200106
0.1667568179105455 0.1645786098128091 0.0146 98188.59395024946
0.1660284831214717 0.1638464727693102 0.01346724441030748 98187.71616200106
0.1607499348828285 0.184064227042886 0.007299999999999999 98155.99047299971
0.162440256208574 0.1782350673491332 0.002993705360139821 98161.62060357968
0.162440256208574 0.1782350673491332 0.01160629463986018 98161.62060357968
0.1579809346507841 0.1883801847619048 0.0146 98171.41981299178
0.1579809346507841 0.1883801847619048 0.006478074848401714 98171.41981299178
0.1579809346507841 0.1883801847619048 0 98171.41981299178
0.1598070777651268 0.1831164477620502 0 98187.69007616866
0.1598070777651268 0.1831164477620502 0.0146 98187.69007616866
0.1523478260869565 0.1962875158374171 0 98171.63342352639
0.1508982194612099 0.1996849400230924 0.01293295238039147 98167.71738677174
0.1508982194612099 0.1996849400230924 0.001667047619608526 98167.71738677172
0.1523478260869565 0.1962875158374171 0.009046205237781234 98171.63342352638
0.1523478260869565 0.1962875158374171 0.0146 98171.63342352639
0.1467879979221645 0.2011421142857142 0.0146 98174.86798138465
0.1467879979221645 0.2011421142857142 0.008206197610489182 98174.86798138462
0.1467879979221645 0.2011421142857143 0 98174.86798138464
0.149654801408567 0.1984350307361109 0 98181.49004449543
0.149654801408567 0.1984350307361109 0.0146 98181.49004449543
0.1565897829897094 0.1926442866996696 0 98174.57012023698
0.1554816877951798 0.1915304067205602 0.00360394096445685 98168.62302844781
0.1565897829897094 0.1926442866996696 0.0146 98174.57012023697
0.1554816877951798 0.1915304067205602 0.01099605903554315 98168.62302844782
0.1142608695652174 0.2123490846336194 0 98186.82317201448
0.1134355471628682 0.2130744128312236 0.01365087923729838 98182.14373111537
0.1134355471628682 0.2130744128312236 0.0009491207627016256 98182.14373111534
0.1142608695652174 0.2123490846336193 0.01282108373770206 98186.82317201451
0.1142608695652174 0.2123490846336193 0.0146 98186.82317201451
0.1075077329966755 0.2139040438095238 0.0146 98185.07228058969
0.1075077329966755 0.2139040438095238 0.006833892946176829 98185.07228058969
0.1075077329966755 0.2139040438095238 0 98185.07228058967
0.1128706533059275 0.2125065699593526 0 98189.08495599413
0.1128706533059275 0.2125065699593526 0.0146 98189.08495599413
0.1269565217391304 0.2091782932919917 0 98187.80061711436
0.1242315229731339 0.2111648192523503 0.01146625141910398 98177.77211806904
0.1242315229731339 0.2111648192523503 0.003133748580896024 98177.77211806904
0.1269565217391304 0.2091782932919917 0.009193610830772452 98187.80061711436
0.1269565217391304 0.2091782932919917 0.0146 98187.80061711435
0.11545468535751 0.2127039957303117 0.01322711183886355 98180.33559971981
0.11545468535751 0.2127039957303117 0.001372888161136454 98180.33559971979
0.1230130816987057 0.2099400171342594 0 98193.77774421471
0.1230130816987057 0.2099400171342594 0.0146 98193.77774421471
0.1396521739130435 0.2055519797549136 0 98180.29787947018
0.1396521739130435 0.2055519797549136 0.005045007945717846 98180.29787947019
0.1333156771207219 0.2074846604303082 0.00730434289627673 98178.44867484427
0.1396521739130435 0.2055519797549136 0.0146 98180.29787947019
0.1332285879569492 0.2074469236758883 0 98191.49019205937
0.1332285879569492 0.2074469236758883 0.0146 98191.49019205938
0.14317493967422 0.2046832705616717 0 98180.4571724916
0.1420935090294726 0.2035961943339917 0.002807535383893472 98180.16542786131
0.14317493967422 0.2046832705616717 0.0146 98180.45717249162
0.1420935090294726 0.2035961943339917 0.01179246461610653 98180.16542786133
0.01269565217391304 0.2243246757063606 0 98193.70098397105
0.01120545712715344 0.2251679987588129 0.01288627569622646 98184.15366733751
0.01120545712715344 0.2251679987588129 0.001713724303773541 98184.15366733752
0.01269565217391304 0.2243246757063606 0.01192149082236915 98193.70098397104
0.01269565217391304 0.2243246757063606 0.0146 98193.70098397104
0.001405374595859551 0.2252532620128574 0.01298381921476152 98184.3091082193
0.00140537459585955 0.2252532620128574 0.001616180785238482 98184.3091082193
0 0.2244852482034902 0.0146 98193.3883690245
0 0.2244852482034902 0.01210519019586273 98193.3883690245
0 0.2244852482034903 0 98193.3883690245
0.01038627639072476 0.224344541508854 0 98193.80801231769
0.01038627639072476 0.224344541508854 0.0146 98193.80801231769
0.02539130434782608 0.2238862227338747 0 98194.32261002596
0.02360593611174861 0.2248712846248881 0.01254682652851091 98183.46122274405
0.02360593611174861 0.2248712846248881 0.002053173471489087 98183.46122274404
0.02539130434782608 0.2238862227338747 0.01141988850695505 98194.32261002596
0.02539130434782608 0.2238862227338747 0.0146 98194.32261002596
0.01425410984731131 0.2250993797687572 0.012807773675592 98183.93403919924
0.01425410984731131 0.2250993797687572 0.001792226324408004 98183.93403919924
0.02269070657703494 0.2239512771561797 0 98194.74074783866
0.02269070657703494 0.2239512771561797 0.0146 98194.74074783867
0.03808695652173914 0.2232038734171995 0 98194.9373153417
0.03581206549097413 0.2243792062881063 0.01198387531462023 98182.2329119147
0.03581206549097412 0.2243792062881063 0.002616124685379769 98182.2329119147
0.03808695652173914 0.2232038734171995 0.01063926203469071 98194.9373153417
0.03808695652173914 0.2232038734171995 0.0146 98194.9373153417
0.02733220950223758 0.2247149357297752 0.01236795907242677 98182.9029511371
0.02733220950223758 0.2247149357297752 0.002232040927573225 98182.9029511371
0.03477356906872361 0.2233352884200095 0 98195.81419710886
0.03477356906872361 0.2233352884200095 0.0146 98195.81419710886
0.05078260869565217 0.2222452303645292 0 98195.82411359386
0.04776806505045517 0.2236356923348114 0.01113327480802346 98180.88236586659
0.04776806505045517 0.2236356923348115 0.003466725191976554 98180.88236586658
0.05078260869565217 0.2222452303645291 0.00954254789417814 98195.82411359387
0.05078260869565217 0.2222452303645291 0.0146 98195.82411359386
0.04069569892318965 0.2240436120542889 0.0115999462383319 98181.31461651796
0.04069569892318965 0.2240436120542889 0.003000053761668089 98181.31461651796
0.04665030858362322 0.2225121006469577 0 98197.10407279446
0.04665030858362325 0.2225121006469576 0.0146 98197.10407279445
0.06347826086956521 0.2209715376609062 0 98196.66501572938
0.0569424052862829 0.2225845905356489 0.007227922026408454 98180.40433608674
0.06347826086956521 0.2209715376609062 0.008085408247841621 98196.66501572941
0.06347826086956521 0.2209715376609062 0.0146 98196.66501572939
0.05831440879502479 0.2214751634919866 0 98198.43062581116
0.05831440879502479 0.2214751634919866 0.0146 98198.43062581118
0.07617391304347826 0.2194034636833077 0 98195.88753772929
0.07617391304347826 0.2194034636833077 0.006291488290030778 98195.88753772926
0.06983272677939349 0.2202325230027821 0.007302545265434173 98180.81855721721
0.07617391304347826 0.2194034636833077 0.0146 98195.88753772927
0.06976180797255271 0.2202203940205542 0 98198.78701179812
0.06976180797255271 0.2202203940205542 0.0146 98198.78701179812
0.08886956521739131 0.217549577524777 0 98192.69389865498
0.08886956521739131 0.217549577524777 0.004170591299959603 98192.69389865498
0.08285884788770539 0.2175626580810452 0.0074292250236204 98189.56144058383
0.08886956521739131 0.217549577524777 0.0146 98192.69389865499
0.08102522178681795 0.2187806786946507 0 98197.10366117166
0.08102522178681795 0.2187806786946507 0.0146 98197.10366117164
0.1015652173913043 0.2152849882033172 0 98187.58715555757
0.1015652173913043 0.2152849882033172 0.001579838543362031 98187.58715555757
0.1005370062703161 0.2149376226821879 0.001182442789136429 98187.13782422688
0.1005370062703161 0.2149376226821879 0.01341755721086357 98187.13782422687
0.1015652173913043 0.2152849882033172 0.0146 98187.58715555757
0.09208896094004572 0.217140246310896 0 98193.19187283055
0.09109858754969112 0.2161447026998374 0.0025633756821448 98191.48518640653
0.09109858754969112 0.2161447026998374 0.0120366243178552 98191.48518640654
0.09208896094004572 0.217140246310896 0.0146 98193.19187283059
0.1027946064691086 0.2151398508837377 0 98187.65849236827
0.1023084471784795 0.214651153610107 0.0008547142552514542 98187.49599322777
0.1027946064691086 0.2151398508837377 0.0146 98187.65849236825
0.1023084471784795 0.214651153610107 0.01374528574474855 98187.49599322774
0.2956838659572182 0.05435550106711212 0.007290686206102109 98146.77768239182
0.2946114286384428 0.06076088952380952 0.0146 98162.46946175082
0.2946114286384428 0.06076088952380952 0.006354614036848413 98162.46946175079
0.2946114286384428 0.06076088952380952 0 98162.46946175082
0.2953932260354953 0.04799895999999999 0 98565.95217417962
0.2953932260354953 0.04799895999999999 0.008257028921998784 98565.95217417963
0.2953932260354953 0.04799895999999999 0.0146 98565.95217417963
0.2953289301042983 0.05507970864634457 0 98564.32385916292
0.2953289301042983 0.05507970864634457 0.0146 98564.32385916291
0.2939920925701853 0.06499813882847948 0 98166.55288716391
0.2946565148838667 0.06641138790575093 0.007299999999999998 98139.36431505656
0.2939920925701853 0.06499813882847948 0.0146 98166.55288716393
