# U  POINT_DATA 283
# x y z  U_x U_y U_z
0.2412173913043478 0.06004410196596525 0 1.844498963868603 0.02763066918129799 5.768050895734735e-21
0.2409049690987891 0.06044683632556539 0.01424071446360756 1.843729764813526 0.01601391300549754 5.720466476301135e-21
0.2409049690987891 0.06044683632556539 0.0003592855363924407 1.843729764813526 0.01601391300549752 5.720466476301134e-21
0.2412173913043478 0.06004410196596526 0.01377997522827548 1.844498963868603 0.02763066918129707 5.768050895734745e-21
0.2412173913043478 0.06004410196596526 0.0146 1.844498963868604 0.02763066918129799 5.768050895734732e-21
0.2401913316326854 0.06076088952380953 0.0146 1.833278176744605 -0.003099689384068509 5.304815103313372e-21
0.2401913316326854 0.06076088952380952 0.01342003137758819 1.833278176744604 -0.00309968938406853 5.304815103313379e-21
0.2401913316326854 0.06076088952380953 0 1.833278176744604 -0.003099689384068544 5.304815103313372e-21
0.2406155605645203 0.06015591694093403 0 1.840588372463708 0.01682728599455857 5.57846174119516e-21
0.2406155605645203 0.06015591694093403 0.0146 1.840588372463708 0.01682728599455861 5.578461741195159e-21
0.2539130434782608 0.05382253001093086 0 1.810878928389148 0.820134846437429 -1.081074749922268e-20
0.2498255554783062 0.05665206289007232 0.007299999999999999 1.832921662551411 0.4740733651414517 -8.148729627305467e-22
0.2539130434782608 0.05382253001093086 0.00666232500351642 1.810878928389148 0.820134846437429 -1.081074749922268e-20
0.2539130434782608 0.05382253001093086 0.0146 1.810878928389148 0.8201348464374287 -1.081074749922268e-20
0.2420828905163977 0.05989087199373025 0.01360467590614262 1.845546173448795 0.03822208659536421 6.069244769119862e-21
0.2420828905163977 0.05989087199373025 0.0009953240938573769 1.845546173448794 0.03822208659536394 6.069244769119866e-21
0.2487669234556458 0.05558790430414309 0 1.816905623621087 0.6896567887969303 -7.600922845511552e-21
0.2487669234556458 0.05558790430414309 0.0146 1.816905623621087 0.6896567887969298 -7.60092284551154e-21
0.2666086956521739 0.05311124347490128 0 1.423090188552341 1.615452955296217 -2.094406254157498e-20
0.2666086956521739 0.05311124347490128 0.005848593552746599 1.423090188552341 1.615452955296218 -2.094406254157499e-20
0.2639154676109431 0.05070624797409554 0.003097212247415391 1.572980689428837 1.236756816344526 -2.032542933729671e-20
0.2639154676109431 0.05070624797409554 0.01150278775258461 1.572980689428837 1.236756816344526 -2.03254293372967e-20
0.2666086956521739 0.05311124347490128 0.0146 1.423090188552341 1.615452955296218 -2.094406254157499e-20
0.2593833589728957 0.05349783314642895 0 1.617970659380556 1.205419081283267 -1.666478116679869e-20
0.2568013018639826 0.05090229646985638 0.003321497143580047 1.770456688687912 0.816676381945138 -1.618270050023878e-20
0.2568013018639826 0.05090229646985638 0.01127850285641995 1.770456688687911 0.8166763819451377 -1.618270050023877e-20
0.2593833589728957 0.05349783314642896 0.0146 1.617970659380556 1.205419081283268 -1.66647811667987e-20
0.272332775063641 0.05500692769206244 0.007299999999999998 1.140891810742823 1.940144248435079 -1.788437760728728e-20
0.2773012179176846 0.06076088952380952 0.0146 1.050955997536037 2.443120840874346 -1.578112601810173e-20
0.2773012179176846 0.06076088952380953 0.0122964006053374 1.050955997536037 2.443120840874347 -1.578112601810174e-20
0.2773012179176846 0.06076088952380953 0 1.050955997536037 2.443120840874347 -1.578112601810174e-20
0.2285217391304347 0.06873836238971084 0 1.636476336817056 -0.4443569972069775 2.08685401241285e-21
0.2265546222144818 0.07154543284464249 0.01233781554665413 1.606661503962058 -0.5071587491403824 6.547146761140601e-22
0.2265546222144817 0.07154543284464249 0.002262184453345873 1.606661503962058 -0.5071587491403827 6.547146761140529e-22
0.2285217391304347 0.06873836238971086 0.009126449384073396 1.636476336817056 -0.4443569972069777 2.086854012412847e-21
0.2285217391304347 0.06873836238971086 0.0146 1.636476336817055 -0.4443569972069777 2.08685401241285e-21
0.2231132929662375 0.07352281904761904 0.0146 1.561175961511899 -0.5506814635108552 1.187988301416941e-21
0.2231132929662375 0.07352281904761904 0.008380286911173131 1.561175961511898 -0.5506814635108552 1.187988301416941e-21
0.2231132929662375 0.07352281904761904 0 1.561175961511899 -0.550681463510855 1.187988301416939e-21
0.225173952327749 0.07015755520363906 0 1.603237162288848 -0.4930622058207814 1.197388695045555e-21
0.225173952327749 0.07015755520363906 0.0146 1.603237162288847 -0.4930622058207815 1.197388695045558e-21
0.2335089752740938 0.06577416141501276 0 1.678134334649972 -0.1632309812446709 -2.833782437967292e-21
0.2320060556274722 0.06426339581215981 0.007299999999999999 1.668088724949981 -0.3446631233990906 1.797441601373793e-21
0.2335089752740938 0.06577416141501276 0.0146 1.678134334649972 -0.1632309812446729 -2.833782437967278e-21
0.2793043478260869 0.06273800563109402 0 0.9971269704347073 2.554467180434289 -1.149622568750325e-20
0.2793043478260869 0.06273800563109402 0.00226187545641115 0.9971269704347073 2.554467180434289 -1.149622568750325e-20
0.2786393950883743 0.0614293136314571 0.0007646956483694348 0.9953509009218369 2.506128653004436 -1.424841375297899e-20
0.2786393950883743 0.0614293136314571 0.01383530435163057 0.9953509009218366 2.506128653004435 -1.424841375297899e-20
0.2793043478260869 0.06273800563109402 0.0146 0.9971269704347074 2.554467180434288 -1.149622568750325e-20
0.2832067087739646 0.06960008591732625 0.007299999999999999 0.9526366111197674 2.840335733725226 -3.128141474417007e-21
0.2888926212843478 0.070399218335367 0.01102651447699998 0.9075116001101906 2.869999681859788 -8.671390451547395e-23
0.2888926212843478 0.070399218335367 0.003573485523000025 0.9075116001101905 2.869999681859788 -8.671390451547396e-23
0.292 0.06684734296754989 0 0.9159727323602181 2.872880902057381 -2.04529262307753e-22
0.292 0.06684734296754989 0.006963070914380308 0.9159727323602181 2.872880902057381 -2.04529262307753e-22
0.292 0.06684734296754991 0.0146 0.9159727323602183 2.872880902057381 -2.04529262307753e-22
0.2822720358607294 0.06374407030317766 0 0.9723133297843427 2.594718034296249 -9.322896151300931e-21
0.2822720358607295 0.06374407030317766 0.0146 0.9723133297843423 2.594718034296251 -9.322896151300881e-21
0.2158260869565218 0.08057861605598625 0 1.446915295868892 -0.6761557877910334 2.215600760330485e-21
0.2136285055388415 0.08407569473228062 0.01207278136966764 1.406611016723498 -0.727723575769484 2.599250152546829e-21
0.2136285055388415 0.0840756947322806 0.00252721863033236 1.406611016723498 -0.7277235757694838 2.599250152546828e-21
0.2158260869565218 0.08057861605598626 0.008072026736236883 1.446915295868892 -0.6761557877910336 2.215600760330486e-21
0.2158260869565218 0.08057861605598626 0.0146 1.446915295868892 -0.6761557877910336 2.215600760330486e-21
0.2104931600568974 0.08628474857142857 0.0146 1.363543700287273 -0.7603390863474251 2.063426596228783e-21
0.2104931600568974 0.08628474857142857 0.008467134065432 1.363543700287272 -0.7603390863474251 2.063426596228778e-21
0.2104931600568974 0.08628474857142855 0 1.363543700287273 -0.7603390863474249 2.063426596228783e-21
0.212223191456929 0.08266304424166337 0 1.407737874395432 -0.713281833284437 2.231345679013968e-21
0.212223191456929 0.08266304424166337 0.0146 1.407737874395432 -0.713281833284437 2.231345679013967e-21
0.2200477790118708 0.07776655034582654 0 1.47371662450735 -0.5525359377902637 1.580081415445663e-21
0.2184794905378676 0.07619007465918504 0.003051414118547741 1.48392432206533 -0.6171680931877599 2.46529059582476e-21
0.2200477790118708 0.07776655034582654 0.0146 1.47371662450735 -0.5525359377902639 1.580081415445664e-21
0.2184794905378676 0.07619007465918504 0.01154858588145226 1.48392432206533 -0.6171680931877599 2.46529059582476e-21
0.2031304347826087 0.09540103875592969 0 1.225131645571738 -0.8910149412490254 6.647170144969074e-22
0.2019143577030567 0.09782425251424645 0.01320151135851516 1.19812627002649 -0.9197300225420705 4.076606872129238e-22
0.2019143577030567 0.09782425251424645 0.001398488641484839 1.198126270026491 -0.9197300225420708 4.076606872129238e-22
0.2031304347826087 0.0954010387559297 0.01042928786320284 1.225131645571738 -0.8910149412490254 6.647170144969092e-22
0.2031304347826087 0.09540103875592969 0.0146 1.225131645571738 -0.8910149412490251 6.647170144969075e-22
0.2002212938223142 0.09904667809523808 0.0146 1.176134791351852 -0.9306609240111322 3.887150249363582e-22
0.2002212938223142 0.09904667809523808 0.01125448789566135 1.176134791351852 -0.9306609240111322 3.887150249363582e-22
0.2002212938223142 0.09904667809523808 0 1.176134791351852 -0.9306609240111323 3.887150249363572e-22
0.2009304832292885 0.09683524174721353 0 1.199419486607002 -0.9092261560653785 4.168836513241753e-22
0.2009304832292885 0.09683524174721353 0.0146 1.199419486607002 -0.9092261560653783 4.168836513241753e-22
0.2077551036205109 0.09093356038288786 0 1.274659570926875 -0.7629982418742123 1.142290206245197e-21
0.2062469989241896 0.08941758266190666 0.003584048762818019 1.284699821168226 -0.8181221058190116 1.532908671527025e-21
0.2077551036205109 0.09093356038288786 0.0146 1.274659570926875 -0.7629982418742125 1.142290206245197e-21
0.2062469989241896 0.08941758266190666 0.01101595123718198 1.284699821168226 -0.8181221058190116 1.532908671527024e-21
0.193413518234598 0.1088143215747325 0.01117445403021232 1.030407899064925 -1.020195302984454 0
0.1921806876803146 0.1118086076190476 0.0146 1.003286675698968 -1.026669985729567 0
0.193413518234598 0.1088143215747325 0.003425545969787675 1.030407899064925 -1.020195302984454 0
0.1921806876803146 0.1118086076190476 0.002007790832361728 1.003286675698968 -1.026669985729567 0
0.1921806876803146 0.1118086076190476 0 1.003286675698968 -1.026669985729567 0
0.1957247040851389 0.1043642154807986 0.007299999999999999 1.080113274539591 -0.9814711107617413 1.259653776253003e-36
0.1964547620165945 0.1050980846623031 0 1.093719769554791 -0.9203401555248669 0
0.1964547620165945 0.1050980846623031 0.0146 1.093719769554791 -0.9203401555248668 -4.4787689822329e-37
0.1904347826086957 0.1144869359418495 0 0.9687336640270138 -1.061743057643767 -1.107476787512135e-22
0.1873953229228932 0.121515210030133 0.0111046213613272 0.8910791832315388 -1.105969622763848 -2.750272600105252e-22
0.1873953229228932 0.121515210030133 0.003495378638672799 0.8910791832315389 -1.105969622763849 -2.750272600105251e-22
0.1904347826086957 0.1144869359418495 0.003064081606151638 0.9687336640270137 -1.061743057643768 -1.107476787512141e-22
0.1904347826086957 0.1144869359418495 0.0146 0.9687336640270138 -1.061743057643767 -1.107476787512135e-22
0.1845128552745438 0.1245705371428571 0.0146 0.8530783643680214 -1.11766267138249 6.698278684175722e-23
0.1845128552745438 0.1245705371428571 0.007789783565725366 0.8530783643680213 -1.11766267138249 6.69827868417568e-23
0.1845128552745438 0.1245705371428571 0 0.8530783643680213 -1.11766267138249 6.698278684175694e-23
0.18610393266883 0.1202170781039958 0 0.9003072118449846 -1.087702178419893 -3.476864953889996e-22
0.18610393266883 0.1202170781039958 0.0146 0.9003072118449846 -1.087702178419893 -3.476864953889997e-22
0.1918343222993666 0.1132154535733512 0 0.971876431632278 -1.010771076419407 2.929323896510154e-37
0.1911999035996594 0.1125777229059274 0.000879889139608195 0.988703332606341 -1.053916583937811 -1.277511844630253e-37
0.1918343222993666 0.1132154535733512 0.0146 0.9718764316322782 -1.010771076419407 0
0.1911999035996594 0.1125777229059274 0.01372011086039181 0.988703332606341 -1.053916583937811 0
0.1778224822302848 0.1372486797351007 0.01450414543517249 0.7094835213391607 -1.191284232680972 -3.793979749644919e-21
0.1778242853267444 0.1373324666666667 0.0146 0.7088899470566513 -1.190547807513911 -3.822124431274623e-21
0.1778224822302848 0.1372486797351005 9.585456482752665e-05 0.7094835213391614 -1.191284232680971 -3.793979749644887e-21
0.1778242853267444 0.1373324666666666 9.792812575604627e-05 0.7088899470566514 -1.190547807513911 -3.822124431274598e-21
0.1778242853267444 0.1373324666666666 0 0.7088899470566514 -1.190547807513911 -3.822124431274599e-21
0.1812268670935175 0.1280764814477776 0.007300000000000003 0.7961213862840419 -1.143938450303045 -8.230922725787048e-22
0.1825925708327919 0.1294493148109061 0 0.7944306837858699 -1.084401559794677 -1.325091176437553e-21
0.1825925708327919 0.1294493148109061 0.0146 0.7944306837858698 -1.084401559794677 -1.325091176437561e-21
0.1777391304347826 0.1374779935414648 0 0.7073927429366625 -1.192198814147331 -3.824895762818073e-21
0.1741002562450359 0.1464365253446618 0.007299999999999994 0.617806113697021 -1.223832401664553 -2.905448232580389e-21
0.1777391304347826 0.1374779935414648 0.0001664867658209409 0.7073927429366622 -1.192198814147331 -3.824895762818074e-21
0.1777391304347826 0.1374779935414649 0.0146 0.7073927429366623 -1.192198814147331 -3.824895762818097e-21
0.1713996539131636 0.1500943961904762 0.0146 0.5815066796243068 -1.229172154033575 -2.444449634284252e-21
0.1713996539131636 0.1500943961904762 0.007309602000138246 0.5815066796243069 -1.229172154033575 -2.444449634284252e-21
0.1713996539131636 0.1500943961904762 0 0.5815066796243068 -1.229172154033575 -2.444449634284252e-21
0.1730710990055981 0.1454019954143592 0 0.6281457788127822 -1.209083264027273 -2.314621091286982e-21
0.1730710990055981 0.1454019954143593 0.0146 0.6281457788127821 -1.209083264027273 -2.314621091286974e-21
0.1778118358559518 0.137405551644756 0 0.7072038020792788 -1.189365929213724 -3.818261881374035e-21
0.1777779183735868 0.1373714570969818 4.460612962483895e-05 0.7084434592252875 -1.191933407641913 -3.894386380241509e-21
0.1778118358559519 0.1374055516447561 0.0146 0.7072038020792786 -1.189365929213724 -3.818261881374061e-21
0.1777779183735868 0.1373714570969819 0.01455539387037517 0.7084434592252873 -1.191933407641913 -3.894386380241558e-21
0.1667339478529996 0.1611570310658992 0.01265595996905044 0.4664987100480607 -1.268830838515146 0
0.1670055828065748 0.1628563257142857 0.0146 0.4547137347714933 -1.251654557999424 0
0.1667339478529996 0.1611570310658992 0.001944040030949556 0.4664987100480608 -1.268830838515146 0
0.1670055828065748 0.1628563257142857 0.002256420227561096 0.4547137347714934 -1.251654557999424 0
0.1670055828065748 0.1628563257142857 0 0.4547137347714934 -1.251654557999424 0
0.168528767173845 0.1535978799712389 0.0073 0.535273202605497 -1.241992574195039 -1.441852471172615e-22
0.1698692498832736 0.1549453606387357 0 0.5320534507448873 -1.189693206585373 -1.982019102523252e-22
0.1698692498832736 0.1549453606387357 0.0146 0.5320534507448874 -1.189693206585373 -1.982019102523294e-22
0.1650434782608695 0.1686221249577978 0 0.4008413977557192 -1.288486254768038 0
0.1638714518411665 0.1744401102823735 0.01325216961734153 0.3496506065556388 -1.304617573846146 0
0.1638714518411665 0.1744401102823735 0.001347830382658468 0.3496506065556387 -1.304617573846146 0
0.1650434782608695 0.1686221249577978 0.00659623364932577 0.4008413977557192 -1.288486254768038 0
0.1650434782608695 0.1686221249577978 0.0146 0.4008413977557191 -1.288486254768038 0
0.1626402055567561 0.1756182552380952 0.0146 0.3409456378148303 -1.299191697442628 0
0.1626402055567561 0.1756182552380952 0.01183623639026954 0.3409456378148303 -1.299191697442628 0
0.162640205556756 0.1756182552380952 0 0.3409456378148302 -1.299191697442627 0
0.1630386519413276 0.1736029627704861 0 0.3570515425534538 -1.294315857083148 0
0.1630386519413276 0.1736029627704861 0.0146 0.3570515425534538 -1.294315857083148 0
0.1667568179105455 0.1645786098128091 0 0.4341576726482918 -1.229532714385136 0
0.1660284831214717 0.1638464727693102 0.001132755589692516 0.4424057990880646 -1.276998692624111 0
0.1667568179105455 0.1645786098128091 0.0146 0.4341576726482916 -1.229532714385136 0
0.1660284831214717 0.1638464727693102 0.01346724441030748 0.4424057990880645 -1.276998692624111 0
0.1607499348828285 0.184064227042886 0.007299999999999999 0.2709490725081944 -1.315084926884483 0
0.162440256208574 0.1782350673491332 0.002993705360139821 0.3163556926599508 -1.31090612556479 0
0.162440256208574 0.1782350673491332 0.01160629463986018 0.3163556926599508 -1.31090612556479 0
0.1579809346507841 0.1883801847619048 0.0146 0.2499157971046267 -1.29613511711164 0
0.1579809346507841 0.1883801847619048 0.006478074848401714 0.2499157971046267 -1.29613511711164 0
0.1579809346507841 0.1883801847619048 0 0.2499157971046267 -1.29613511711164 0
0.1598070777651268 0.1831164477620502 0 0.2874964097224028 -1.292968766310459 0
0.1598070777651268 0.1831164477620502 0.0146 0.2874964097224028 -1.292968766310459 0
0.1523478260869565 0.1962875158374171 0 0.2051215432812277 -1.279814774542258 0
0.1508982194612099 0.1996849400230924 0.01293295238039147 0.1876412025807113 -1.27350712221474 0
0.1508982194612099 0.1996849400230924 0.001667047619608526 0.1876412025807113 -1.27350712221474 0
0.1523478260869565 0.1962875158374171 0.009046205237781234 0.2051215432812277 -1.279814774542258 0
0.1523478260869565 0.1962875158374171 0.0146 0.2051215432812277 -1.279814774542258 0
0.1467879979221645 0.2011421142857142 0.0146 0.1787301669905795 -1.241355992289303 0
0.1467879979221645 0.2011421142857142 0.008206197610489182 0.1787301669905795 -1.241355992289302 0
0.1467879979221645 0.2011421142857143 0 0.1787301669905795 -1.241355992289302 0
0.149654801408567 0.1984350307361109 0 0.1950451492355744 -1.261876518940714 0
0.149654801408567 0.1984350307361109 0.0146 0.1950451492355744 -1.261876518940714 0
0.1565897829897094 0.1926442866996696 0 0.2321807642107384 -1.260730163326116 0
0.1554816877951798 0.1915304067205602 0.00360394096445685 0.2235953993786531 -1.298149706411426 0
0.1565897829897094 0.1926442866996696 0.0146 0.2321807642107384 -1.260730163326116 0
0.1554816877951798 0.1915304067205602 0.01099605903554315 0.2235953993786532 -1.298149706411427 0
0.1142608695652174 0.2123490846336194 0 0.1198679566735346 -1.040083122305955 0
0.1134355471628682 0.2130744128312236 0.01365087923729838 0.117059382063606 -1.036797566455656 0
0.1134355471628682 0.2130744128312236 0.0009491207627016256 0.117059382063606 -1.036797566455655 0
0.1142608695652174 0.2123490846336193 0.01282108373770206 0.1198679566735346 -1.040083122305955 0
0.1142608695652174 0.2123490846336193 0.0146 0.1198679566735347 -1.040083122305955 0
0.1075077329966755 0.2139040438095238 0.0146 0.1104751254718457 -1.012681328349244 0
0.1075077329966755 0.2139040438095238 0.006833892946176829 0.1104751254718457 -1.012681328349244 0
0.1075077329966755 0.2139040438095238 0 0.1104751254718457 -1.012681328349244 0
0.1128706533059275 0.2125065699593526 0 0.1182213564247279 -1.034235373742117 0
0.1128706533059275 0.2125065699593526 0.0146 0.1182213564247279 -1.034235373742117 0
0.1269565217391304 0.2091782932919917 0 0.1440558633701531 -1.102680681926605 0
0.1242315229731339 0.2111648192523503 0.01146625141910398 0.1330874873736838 -1.088800016732214 0
0.1242315229731339 0.2111648192523503 0.003133748580896024 0.1330874873736839 -1.088800016732214 0
0.1269565217391304 0.2091782932919917 0.009193610830772452 0.1440558633701531 -1.102680681926605 0
0.1269565217391304 0.2091782932919917 0.0146 0.1440558633701531 -1.102680681926605 0
0.11545468535751 0.2127039957303117 0.01322711183886355 0.1188926289672756 -1.045853844567855 0
0.11545468535751 0.2127039957303117 0.001372888161136454 0.1188926289672756 -1.045853844567855 0
0.1230130816987057 0.2099400171342594 0 0.1385253462466421 -1.083018439597623 0
0.1230130816987057 0.2099400171342594 0.0146 0.1385253462466421 -1.083018439597623 0
0.1396521739130435 0.2055519797549136 0 0.1652935897140451 -1.192377386869484 2.65640746107715e-21
0.1396521739130435 0.2055519797549136 0.005045007945717846 0.1652935897140451 -1.192377386869484 2.656407461077134e-21
0.1333156771207219 0.2074846604303082 0.00730434289627673 0.1442549158937024 -1.13492815460383 0
0.1396521739130435 0.2055519797549136 0.0146 0.1652935897140452 -1.192377386869484 2.65640746107715e-21
0.1332285879569492 0.2074469236758883 0 0.1594610376784867 -1.152340916426782 3.797880643231578e-21
0.1332285879569492 0.2074469236758883 0.0146 0.1594610376784867 -1.152340916426783 3.797880643231579e-21
0.14317493967422 0.2046832705616717 0 0.1626426302698271 -1.225577913191805 3.533077283521936e-21
0.1420935090294726 0.2035961943339917 0.002807535383893472 0.1604499642388411 -1.20530387478092 3.491939741876199e-36
0.14317493967422 0.2046832705616717 0.0146 0.1626426302698271 -1.225577913191805 3.53307728352194e-21
0.1420935090294726 0.2035961943339917 0.01179246461610653 0.1604499642388411 -1.20530387478092 -2.827252597014158e-36
0.01269565217391304 0.2243246757063606 0 0.01342690794678875 -0.8311471469114317 2.2799714641892e-39
0.01120545712715344 0.2251679987588129 0.01288627569622646 0.01170253993199569 -0.831519984997563 -7.243670079329436e-54
0.01120545712715344 0.2251679987588129 0.001713724303773541 0.01170253993199569 -0.831519984997563 2.155854190276618e-53
0.01269565217391304 0.2243246757063606 0.01192149082236915 0.01342690794678874 -0.8311471469114315 2.2799714641892e-39
0.01269565217391304 0.2243246757063606 0.0146 0.01342690794678875 -0.8311471469114315 2.279971464189201e-39
0.001405374595859551 0.2252532620128574 0.01298381921476152 0.00156778167033127 -0.1831178248176971 0
0.00140537459585955 0.2252532620128574 0.001616180785238482 0.001567781670331273 -0.1831178248176973 0
0 0.2244852482034902 0.0146 0 0 0
0 0.2244852482034902 0.01210519019586273 0 0 0
0 0.2244852482034903 0 0 0 0
0.01038627639072476 0.224344541508854 0 0.01073358855040943 -0.6813707480343988 0
0.01038627639072476 0.224344541508854 0.0146 0.01073358855040943 -0.6813707480343986 3.449366704442582e-54
0.02539130434782608 0.2238862227338747 0 0.02622731108420429 -0.8381103296336879 -5.509484645591015e-23
0.02360593611174861 0.2248712846248881 0.01254682652851091 0.02385615005760026 -0.8379552676578668 -8.424671410673545e-38
0.02360593611174861 0.2248712846248881 0.002053173471489087 0.02385615005760026 -0.8379552676578668 -8.424671410673545e-38
0.02539130434782608 0.2238862227338747 0.01141988850695505 0.02622731108420429 -0.838110329633688 -5.509484645591015e-23
0.02539130434782608 0.2238862227338747 0.0146 0.02622731108420428 -0.8381103296336879 -5.509484645591004e-23
0.01425410984731131 0.2250993797687572 0.012807773675592 0.01474298999979891 -0.832789024776407 0
0.01425410984731131 0.2250993797687572 0.001792226324408004 0.01474298999979892 -0.8327890247764071 0
0.02269070657703494 0.2239512771561797 0 0.02319919221463292 -0.8365441826308857 2.643589497784828e-39
0.02269070657703494 0.2239512771561797 0.0146 0.02319919221463291 -0.8365441826308857 2.643589497784828e-39
0.03808695652173914 0.2232038734171995 0 0.03916281799823194 -0.8492918738561235 -1.935037329143829e-22
0.03581206549097413 0.2243792062881063 0.01198387531462023 0.03587578773138496 -0.8480784554635381 -2.607912432781808e-23
0.03581206549097412 0.2243792062881063 0.002616124685379769 0.03587578773138494 -0.8480784554635381 -2.607912432781782e-23
0.03808695652173914 0.2232038734171995 0.01063926203469071 0.03916281799823194 -0.8492918738561234 -1.935037329143824e-22
0.03808695652173914 0.2232038734171995 0.0146 0.03916281799823194 -0.8492918738561234 -1.935037329143827e-22
0.02733220950223758 0.2247149357297752 0.01236795907242677 0.02761166200521858 -0.840564109185561 -3.610029543922939e-38
0.02733220950223758 0.2247149357297752 0.002232040927573225 0.02761166200521859 -0.8405641091855608 -3.610029543922939e-38
0.03477356906872361 0.2233352884200095 0 0.03547140821618939 -0.8462788884235584 -9.605186218689114e-23
0.03477356906872361 0.2233352884200095 0.0146 0.03547140821618938 -0.8462788884235581 -9.605186218689088e-23
0.05078260869565217 0.2222452303645292 0 0.05182140534254388 -0.8652103651243015 -2.256532947368086e-22
0.04776806505045517 0.2236356923348114 0.01113327480802346 0.04721172729208398 -0.8621067447924211 -2.970060654027051e-22
0.04776806505045517 0.2236356923348115 0.003466725191976554 0.04721172729208398 -0.862106744792421 -2.970060654027044e-22
0.05078260869565217 0.2222452303645291 0.00954254789417814 0.05182140534254387 -0.8652103651243015 -2.256532947368092e-22
0.05078260869565217 0.2222452303645291 0.0146 0.05182140534254387 -0.8652103651243015 -2.256532947368092e-22
0.04069569892318965 0.2240436120542889 0.0115999462383319 0.04064658354791936 -0.8532513718096262 -2.30625319684109e-22
0.04069569892318965 0.2240436120542889 0.003000053761668089 0.04064658354791936 -0.8532513718096261 -2.306253196841091e-22
0.04665030858362322 0.2225121006469577 0 0.04729941660131744 -0.8598756396031482 -2.713539113337834e-22
0.04665030858362325 0.2225121006469576 0.0146 0.04729941660131748 -0.8598756396031482 -2.713539113337846e-22
0.06347826086956521 0.2209715376609062 0 0.06543279045508323 -0.8857527427770009 7.352992962115667e-22
0.0569424052862829 0.2225845905356489 0.007227922026408454 0.05615621692336519 -0.8754668141942094 -2.327572834576082e-23
0.06347826086956521 0.2209715376609062 0.008085408247841621 0.06543279045508324 -0.8857527427770011 7.352992962115673e-22
0.06347826086956521 0.2209715376609062 0.0146 0.06543279045508323 -0.8857527427770011 7.352992962115706e-22
0.05831440879502479 0.2214751634919866 0 0.05990975618397439 -0.8769370336086251 6.513631777138499e-22
0.05831440879502479 0.2214751634919866 0.0146 0.05990975618397441 -0.8769370336086252 6.513631777138505e-22
0.07617391304347826 0.2194034636833077 0 0.08285908675919532 -0.9138063303870378 5.541730622330108e-22
0.07617391304347826 0.2194034636833077 0.006291488290030778 0.08285908675919532 -0.9138063303870378 5.541730622330133e-22
0.06983272677939349 0.2202325230027821 0.007302545265434173 0.0681535652184035 -0.8985194759115951 -3.274900773232449e-25
0.07617391304347826 0.2194034636833077 0.0146 0.08285908675919533 -0.9138063303870378 5.541730622330131e-22
0.06976180797255271 0.2202203940205542 0 0.07682952610796773 -0.9000877104781053 5.904170478710704e-22
0.06976180797255271 0.2202203940205542 0.0146 0.07682952610796773 -0.9000877104781054 5.904170478710706e-22
0.08886956521739131 0.217549577524777 0 0.09933360537618902 -0.9497436908325358 -5.295424702479141e-23
0.08886956521739131 0.217549577524777 0.004170591299959603 0.09933360537618902 -0.9497436908325358 -5.295424702479146e-23
0.08285884788770539 0.2175626580810452 0.0074292250236204 0.08302037280143074 -0.9292705285562385 0
0.08886956521739131 0.217549577524777 0.0146 0.09933360537618902 -0.949743690832536 -5.295424702479142e-23
0.08102522178681795 0.2187806786946507 0 0.09418243281308816 -0.9297563762131968 -7.083696065578368e-23
0.08102522178681795 0.2187806786946507 0.0146 0.09418243281308815 -0.9297563762131968 -7.083696065578357e-23
0.1015652173913043 0.2152849882033172 0 0.1094788685203319 -0.990991622704371 1.947320634282736e-22
0.1015652173913043 0.2152849882033172 0.001579838543362031 0.1094788685203319 -0.990991622704371 1.947320634282735e-22
0.1005370062703161 0.2149376226821879 0.001182442789136429 0.102573495251874 -0.9844299789890273 -3.995929725660411e-37
0.1005370062703161 0.2149376226821879 0.01341755721086357 0.102573495251874 -0.9844299789890273 -3.74618411780663e-37
0.1015652173913043 0.2152849882033172 0.0146 0.1094788685203319 -0.990991622704371 1.947320634282736e-22
0.09208896094004572 0.217140246310896 0 0.1067675205815457 -0.9631997349943302 4.563488534341536e-22
0.09109858754969112 0.2161447026998374 0.0025633756821448 0.0921520098095182 -0.9526076804004319 5.877684940426026e-38
0.09109858754969112 0.2161447026998374 0.0120366243178552 0.09215200980951822 -0.9526076804004321 1.598371890264162e-36
0.09208896094004572 0.217140246310896 0.0146 0.1067675205815457 -0.9631997349943302 4.563488534341535e-22
0.1027946064691086 0.2151398508837377 0 0.112413603577727 -0.9977336883482053 1.742657145664321e-22
0.1023084471784795 0.214651153610107 0.0008547142552514542 0.1047213056871963 -0.9908609822003447 6.873678884615607e-37
0.1027946064691086 0.2151398508837377 0.0146 0.1124136035777271 -0.9977336883482054 1.742657145664322e-22
0.1023084471784795 0.214651153610107 0.01374528574474855 0.1047213056871963 -0.9908609822003446 3.995929725660414e-37
0.2956838659572182 0.05435550106711212 0.007290686206102109 0.7535594916328778 2.50463668079494 -3.381354495834465e-22
0.2946114286384428 0.06076088952380952 0.0146 0.662998725002045 2.603315913799253 -7.011626975946406e-22
0.2946114286384428 0.06076088952380952 0.006354614036848413 0.662998725002045 2.603315913799252 -7.011626975946404e-22
0.2946114286384428 0.06076088952380952 0 0.6629987250020447 2.603315913799252 -7.011626975946414e-22
0.2953932260354953 0.04799895999999999 0 0 0 0
0.2953932260354953 0.04799895999999999 0.008257028921998784 0 0 0
0.2953932260354953 0.04799895999999999 0.0146 0 0 0
0.2953289301042983 0.05507970864634457 0 0.1944016659828029 1.231972711515881 -7.238131074056501e-22
0.2953289301042983 0.05507970864634457 0.0146 0.194401665982803 1.231972711515881 -7.238131074056497e-22
0.2939920925701853 0.06499813882847948 0 0.9157062245667172 2.877736935330963 -2.546358120428854e-22
0.2946565148838667 0.06641138790575093 0.007299999999999998 0.9303307120041622 2.919138396084302 -5.913436522240755e-22
0.2939920925701853 0.06499813882847948 0.0146 0.915706224566717 2.877736935330963 -2.546358120428855e-22
