# p  POINT_DATA 348
# x y z  p
0.1820078737677441 0.003349439532865674 0.00758349315234268 99167.86765831924
0.1798461267392518 0.005999869999999999 0.0146 99186.79895333287
0.1798461267392518 0.005999869999999999 0.002423045750139582 99186.79895333288
0.1798461267392518 0.005999869999999999 0 99186.79895333288
0.1833381849190673 0 0 99199.25392038187
0.1833381849190673 0 0.006438912656927476 99199.25392038189
0.1833381849190673 0 0.0146 99199.25392038189
0.1824710493122207 0.00223626937208568 0 99202.16345982775
0.1824710493122207 0.002236269372085681 0.0146 99202.16345982776
0.1777391304347826 0.007876096207095371 0 99183.81696068504
0.1754089989501619 0.01089853733635443 0.0119203487926863 99176.29699596399
0.1754089989501619 0.01089853733635443 0.002679651207313703 99176.29699596399
0.1777391304347826 0.007876096207095371 0.004565582691557052 99183.81696068506
0.1777391304347826 0.007876096207095371 0.0146 99183.81696068503
0.173458544654192 0.01199974 0.0146 99203.34895794012
0.173458544654192 0.01199974 0.009677326352320881 99203.34895794012
0.173458544654192 0.01199974 0 99203.34895794012
0.1743459722762118 0.01039615890294562 0 99213.93713861318
0.1743459722762118 0.01039615890294562 0.0146 99213.93713861318
0.1794277185820762 0.006797884093999838 0 99188.2648024899
0.1786779219216023 0.006443535815734825 0.001079610209842624 99187.63669964967
0.1794277185820762 0.006797884093999838 0.0146 99188.2648024899
0.1786779219216023 0.006443535815734825 0.01352038979015737 99187.63669964964
0.1712986506390261 0.01501017442434893 0.007308516384271347 99143.76121295788
0.1699831906706406 0.01799961 0.0146 99200.41737012027
0.1699831906706406 0.01799961 0.00568066927123681 99200.41737012027
0.1699831906706406 0.01799961 0 99200.41737012027
0.1715342217398243 0.01506721668757793 0 99214.96961194207
0.1715342217398243 0.01506721668757793 0.0146 99214.96961194207
0.1670365783659817 0.02305755583857473 0.0123079348791209 99186.15241214276
0.1676498269130575 0.02399948 0.0146 99193.18460100342
0.1670365783659817 0.02305755583857473 0.0022920651208791 99186.15241214276
0.1676498269130575 0.02399948 0.002997300950016208 99193.18460100339
0.1676498269130575 0.02399948 0 99193.18460100341
0.1680456751842415 0.01941842574950867 0.003452526461877772 99192.37183316468
0.1693117823396953 0.02001677849537251 0 99205.50181224414
0.1693117823396953 0.02001677849537251 0.0146 99205.50181224413
0.1680456751842415 0.01941842574950867 0.01114747353812223 99192.3718331647
0.1655241671553376 0.02977218003364109 0.01404720777136169 99179.99938356705
0.1657766106433582 0.02999935 0.0146 99180.71439546648
0.1655241671553376 0.02977218003364109 0.0005527922286383094 99179.99938356705
0.1657766106433582 0.02999935 0.0008431022398620734 99180.71439546651
0.1657766106433582 0.02999935 0 99180.71439546651
0.1665524558583689 0.02471261149524624 0.001735324237124326 99191.19981802939
0.1674448466659452 0.02513434869797574 0 99194.25543661264
0.1674448466659452 0.02513434869797574 0.0146 99194.25543661267
0.1665524558583689 0.02471261149524624 0.01286467576287567 99191.19981802943
0.1650434782608695 0.03265942594154733 0 99175.91445984181
0.1645278918467086 0.03575555772756565 0.01400707562371496 99169.93842519696
0.1645278918467086 0.03575555772756567 0.0005929243762850396 99169.93842519693
0.1650434782608695 0.03265942594154733 0.006472991705918791 99175.91445984182
0.1650434782608695 0.03265942594154733 0.0146 99175.91445984179
0.1641246040704679 0.03599921999999999 0.0146 99176.69282072014
0.1641246040704679 0.03599921999999999 0.01354329468103811 99176.69282072016
0.1641246040704679 0.03599922000000001 0 99176.69282072014
0.1641852363119014 0.03559362129173232 0 99178.67503637454
0.1641852363119014 0.0355936212917323 0.0146 99178.67503637455
0.1657354521881387 0.03032637168822297 0 99180.85160397831
0.1654491706361419 0.03019107717386093 0.0004665462315632913 99180.49595926011
0.1657354521881387 0.03032637168822297 0.0146 99180.85160397828
0.1654491706361419 0.03019107717386093 0.01413345376843671 99180.49595926008
0.1637298583596853 0.04137828308684962 0.001510662886361805 99160.67429671065
0.1644305874729974 0.03628886758966743 0.0007048244060528445 99167.99354855808
0.1637298583596853 0.04137828308684962 0.0130893371136382 99160.67429671064
0.1644305874729974 0.03628886758966741 0.01389517559394715 99167.99354855806
0.1628852061721808 0.04199909000000001 0.0146 99175.75930397975
0.1628852061721808 0.04199909000000001 0.01211798709800795 99175.75930397976
0.1628852061721808 0.04199909 0 99175.75930397978
0.1630118870167962 0.04103897521498528 0 99179.47500476988
0.1630118870167962 0.04103897521498528 0.0146 99179.47500476988
0.1630195626184472 0.04704247264675854 0.002327502988785628 99152.9783063784
0.1635196413471719 0.04271924389663662 0.0017524124507522 99157.35124841369
0.1630195626184472 0.04704247264675855 0.01227249701121437 99152.97830637841
0.1635196413471719 0.04271924389663662 0.0128475875492478 99157.35124841367
0.161920002391079 0.04799896000000001 0.0146 99172.46872037057
0.161920002391079 0.04799896000000001 0.0110080027497409 99172.46872037058
0.161920002391079 0.04799895999999999 0 99172.46872037057
0.1620874985317926 0.04660198614988623 0 99177.63795054986
0.1620874985317926 0.04660198614988624 0.0146 99177.63795054988
0.1620784790686627 0.05778041162391502 0.003409749071037825 99146.51109721736
0.1626308219797282 0.05042421149581282 0.002774554723312516 99149.50739445136
0.1620784790686627 0.05778041162391502 0.01119025092896217 99146.51109721736
0.1626308219797282 0.05042421149581282 0.01182544527668749 99149.50739445136
0.1606658695044559 0.06076088952380953 0.0146 99168.06830205992
0.1606658695044559 0.06076088952380952 0.009565749930124327 99168.06830205991
0.1606658695044559 0.06076088952380952 0 99168.06830205991
0.1610050083310114 0.0567013368578367 0 99175.36103728075
0.1610050083310114 0.0567013368578367 0.0146 99175.36103728075
0.1607448167904587 0.06695347679749651 0.007228163649474047 99141.50276323999
0.1593823641172629 0.07352281904761904 0.0146 99164.19992038078
0.1593823641172629 0.07352281904761904 0.008089718734852345 99164.19992038078
0.1593823641172629 0.07352281904761904 0 99164.19992038078
0.1598606610628244 0.06831294507579193 0 99170.61225369835
0.1598606610628245 0.06831294507579193 0.0146 99170.61225369833
0.1589352442074027 0.07988423853346921 0.007292546554712732 99139.25693548088
0.1583735851144816 0.08628474857142857 0.0146 99161.19301718171
0.1583735851144816 0.08628474857142857 0.006929622881653896 99161.19301718171
0.1583735851144816 0.08628474857142857 0 99161.19301718169
0.1588485411613619 0.0800574709502915 0 99166.12604117874
0.1588485411613619 0.0800574709502915 0.0146 99166.12604117875
0.1573124036965033 0.09274673673468391 0.007330897669967316 99147.07405551634
0.1575329662351217 0.09904667809523809 0.0146 99158.43883956152
0.1575329662351218 0.09904667809523808 0.005962911170390045 99158.43883956154
0.1575329662351218 0.09904667809523808 0 99158.43883956154
0.1579959309062705 0.09196233918747311 0 99162.44415874491
0.1579959309062705 0.09196233918747311 0.0146 99162.44415874491
0.1562103708474319 0.1055399991569562 0.007342846237167498 99150.41583473202
0.1568200999884699 0.1118086076190476 0.0146 99155.66033269388
0.1568200999884699 0.1118086076190476 0.005143114986740432 99155.66033269386
0.1568200999884699 0.1118086076190476 0 99155.66033269386
0.157257297344656 0.1039817791307463 0 99159.15030485287
0.157257297344656 0.1039817791307462 0.0146 99159.15030485284
0.1553144115950529 0.1215884646457487 0.01118842666568916 99149.63867085724
0.156213134726302 0.1245705371428571 0.0146 99152.8953665235
0.1553144115950529 0.1215884646457487 0.003411573334310838 99149.63867085722
0.156213134726302 0.1245705371428571 0.004445104935247393 99152.8953665235
0.156213134726302 0.1245705371428571 0 99152.8953665235
0.1555455817544205 0.1150230570938365 0.007299999999999999 99151.73248499772
0.1566160412824174 0.1160991049303122 0 99156.03564163804
0.1566160412824174 0.1160991049303122 0.0146 99156.03564163804
0.1547415063952016 0.1349262902073647 0.01184726764551807 99148.53511818676
0.1556921275352018 0.1373324666666667 0.0146 99150.29511387685
0.1547415063952016 0.1349262902073647 0.002752732354481931 99148.53511818677
0.1556921275352018 0.1373324666666667 0.003845946665482123 99150.29511387687
0.1556921275352018 0.1373324666666667 0 99150.29511387687
0.1549609082321685 0.127197260821192 0.003005044466993845 99150.69916928269
0.1560607623649282 0.1283028567162647 0 99153.09157595068
0.1560607623649282 0.1283028567162647 0.0146 99153.09157595068
0.1549609082321685 0.127197260821192 0.01159495553300616 99150.6991692827
0.1543053723259711 0.1481266306279291 0.01234882182513321 99146.97398941338
0.1552414263515439 0.1500943961904762 0.0146 99147.92808800898
0.1543053723259711 0.1481266306279291 0.002251178174866782 99146.97398941335
0.1552414263515439 0.1500943961904762 0.003327640304275534 99147.92808800896
0.1552414263515439 0.1500943961904762 0 99147.92808800898
0.1545065846306758 0.1395024949579645 0.002482572325277202 99149.05725222784
0.1555774736399172 0.1405789745177813 0 99150.39265863321
0.1555774736399172 0.1405789745177813 0.0146 99150.39265863318
0.1545065846306758 0.1395024949579645 0.0121174276747228 99149.05725222782
0.1539635683611242 0.1612321484960458 0.01274189638470717 99145.30516098077
0.1548496868491345 0.1628563257142857 0.0146 99145.81819803476
0.1539635683611242 0.1612321484960458 0.001858103615292831 99145.30516098079
0.1548496868491345 0.1628563257142857 0.002877139876504708 99145.81819803476
0.1548496868491345 0.1628563257142857 0 99145.81819803476
0.1541449365020215 0.1519008883776747 0.002066676977324756 99147.22851558335
0.1551548134071272 0.1529160373211188 0 99147.97048421489
0.1551548134071272 0.1529160373211188 0.0146 99147.97048421486
0.1541449365020215 0.1519008883776747 0.01253332302267524 99147.22851558337
0.153690162139098 0.1742689115525539 0.01305631354003727 99143.69550002037
0.1545083785744877 0.1756182552380952 0.0146 99143.96592529723
0.153690162139098 0.1742689115525539 0.001543686459962735 99143.69550002037
0.1545083785744877 0.1756182552380952 0.002484635360660887 99143.96592529725
0.1545083785744877 0.1756182552380952 0 99143.96592529722
0.1538519679279355 0.1643683198919327 0.001729763117125892 99145.42316955552
0.1547841880096224 0.1653054066063603 0 99145.83011444274
0.1547841880096224 0.1653054066063603 0.0146 99145.83011444275
0.1538519679279355 0.1643683198919327 0.01287023688287411 99145.42316955555
0.1534682667703444 0.1872538948446064 0.01331149321410389 99142.22060121586
0.1542109866493591 0.1883801847619048 0.0146 99142.35807807196
0.1534682667703444 0.1872538948446064 0.001288506785896103 99142.22060121587
0.1542109866493591 0.1883801847619048 0.002142634646763054 99142.35807807196
0.1542109866493591 0.1883801847619048 0 99142.35807807196
0.1536115056121964 0.176888531772209 0.001453231454025867 99143.74352678783
0.1544589266632412 0.1777403767646741 0 99143.96164223397
0.1544589266632412 0.1777403767646741 0.0146 99143.96164223399
0.1536115056121964 0.176888531772209 0.01314676854597413 99143.74352678786
0.1532858505945567 0.200199192843506 0.01352127181625971 99140.90499815537
0.1539510463422488 0.2011421142857142 0.0146 99140.97053308474
0.1532858505945567 0.200199192843506 0.001078728183740292 99140.90499815538
0.1539510463422488 0.2011421142857142 0.001843703293586127 99140.97053308475
0.1539510463422488 0.2011421142857142 0 99140.97053308474
0.1534124315441737 0.1894503479665636 0.001224296275799751 99142.23323802573
0.1541736042965647 0.1902154944031853 0 99142.34601305785
0.1541736042965647 0.1902154944031853 0.0146 99142.34601305782
0.1534124315441737 0.1894503479665636 0.01337570372420025 99142.2332380257
0.1531344905012127 0.213113272632423 0.01369533592360528 99139.74525823593
0.1537245246023233 0.2139040438095238 0.0146 99139.77250494786
0.1531344905012127 0.213113272632423 0.0009046640763947175 99139.74525823595
0.1537245246023233 0.2139040438095238 0.001583203292671886 99139.77250494785
0.1537245246023233 0.2139040438095238 0 99139.77250494785
0.15324562131411 0.202044596431475 0.001032464511226539 99140.90090238267
0.1539229423835701 0.2027254534394516 0 99140.95545111556
0.1539229423835701 0.2027254534394516 0.0146 99140.95545111556
0.15324562131411 0.202044596431475 0.01356753548877346 99140.90090238265
0.1530113056162624 0.2259990301249418 0.01383699854129819 99138.72431996927
0.1535327983546189 0.2266659733333333 0.0146 99138.73198816073
0.1530113056162624 0.2259990301249419 0.0007630014587018111 99138.72431996927
0.1535327983546189 0.2266659733333334 0.00136271810781171 99138.73198816074
0.1535327983546189 0.2266659733333334 0 99138.73198816074
0.1531058364279645 0.2146660113254691 0.0008717118921591642 99139.73379074089
0.1537040433817107 0.2152673412043744 0 99139.75699662486
0.1537040433817107 0.2152673412043744 0.0146 99139.75699662486
0.1531058364279645 0.2146660113254691 0.01372828810784084 99139.73379074091
0.1529145027227825 0.2388582678994319 0.01394832186880012 99137.75728680674
0.1533769719767103 0.2394279028571429 0.0146 99137.75437068169
0.1529145027227825 0.2388582678994318 0.0006516781311998798 99137.75728680675
0.1533769719767103 0.2394279028571428 0.001183517773216895 99137.75437068172
0.1533769719767103 0.2394279028571428 0 99137.75437068171
0.15299160328735 0.2273131113572736 0.0007403437804525627 99138.71043933266
0.153518430362979 0.2278426887211074 0 99138.71689362373
0.153518430362979 0.2278426887211073 0.0146 99138.7168936237
0.15299160328735 0.2273131113572734 0.01385965621954744 99138.71043933263
0.1528511224987048 0.2516839085222697 0.0140212091264894 99136.44538625324
0.1532757511405531 0.2521898323809524 0.0146 99136.43593609551
0.1528511224987048 0.2516839085222697 0.0005787908735106033 99136.44538625325
0.1532757511405531 0.2521898323809524 0.001067113811636124 99136.43593609554
0.1532757511405531 0.2521898323809524 0 99136.43593609553
0.1529012372323343 0.2399842030722286 0.0006364228171844429 99137.74107027223
0.1533688316280949 0.2404542385333991 0 99137.74026686975
0.1533688316280949 0.2404542385333992 0.0146 99137.74026686973
0.1529012372323343 0.2399842030722287 0.01396357718281556 99137.7410702722
0.1530194065134839 0.2642766755086078 0.01382768250949345 99133.72126414849
0.1536379328390261 0.2649517619047619 0.0146 99133.70615769854
0.1530194065134839 0.2642766755086078 0.0007723174905065529 99133.72126414851
0.1536379328390261 0.2649517619047619 0.001483622764880044 99133.70615769853
0.1536379328390261 0.2649517619047619 0 99133.70615769853
0.152845654619401 0.2526902598153974 0.0005725028123111701 99136.42811346757
0.153303000362306 0.2531499931208641 0 99136.42629478037
0.153303000362306 0.2531499931208641 0.0146 99136.42629478034
0.152845654619401 0.2526902598153974 0.01402749718768883 99136.42811346757
0.152907395973887 0.2771512003203692 0.01395649463002988 99133.76630636607
0.1533447248203118 0.2777136914285714 0.0146 99133.748033841
0.152907395973887 0.2771512003203692 0.0006435053699701243 99133.76630636606
0.1533447248203118 0.2777136914285714 0.001146433543358638 99133.74803384097
0.1533447248203118 0.2777136914285714 0 99133.74803384097
0.1531191779621911 0.2657271406040956 0.0008870546565198199 99133.75736967665
0.1537275378305541 0.2663386764006667 0 99133.73194982746
0.1537275378305541 0.2663386764006667 0.0146 99133.73194982747
0.1531191779621911 0.2657271406040956 0.01371294534348018 99133.75736967666
0.1396521739130435 0.290025012013202 0 99135.57167361367
0.1394172817923102 0.290239502582924 0.01432987406115679 99135.57801038676
0.1394172817923102 0.2902395025829241 0.0002701259388432417 99135.57801038676
0.1396521739130435 0.290025012013202 0.01408449092280772 99135.57167361365
0.1396521739130435 0.290025012013202 0.0146 99135.57167361365
0.1365829090227784 0.2904756209523809 0.0146 99135.90921353495
0.1365829090227785 0.2904756209523809 0.01107034537619527 99135.90921353496
0.1365829090227782 0.290475620952381 0 99135.90921353496
0.1392331657800238 0.2900544253973792 0 99135.46730509475
0.1392331657800239 0.2900544253973792 0.0146 99135.46730509476
0.1523478260869565 0.2795412704765266 0 99133.94733079258
0.1497611157135024 0.2878754067190106 0.01162528307052776 99135.88376781228
0.1497611157135024 0.2878754067190105 0.002974716929472232 99135.88376781227
0.1523478260869565 0.2795412704765266 0.002090800928681307 99133.94733079258
0.1523478260869565 0.2795412704765266 0.0146 99133.94733079261
0.1399595674082546 0.2901666227167469 0.01424649748050722 99135.83186440291
0.1399595674082546 0.290166622716747 0.0003535025194928174 99135.83186440288
0.1481462269850765 0.2862520875024276 0 99133.451719053
0.1481462269850765 0.2862520875024277 0.0146 99133.451719053
0.1533252712871838 0.278696239358194 0 99133.74652323798
0.1530205766003504 0.2783899540200026 0.0007736630904029764 99133.84395627154
0.1533252712871838 0.278696239358194 0.0146 99133.74652323802
0.1530205766003504 0.2783899540200026 0.01382633690959702 99133.84395627156
0.01269565217391304 0.293599923711992 0 99142.32627470451
0.01269565217391304 0.293599923711992 0.003574288684577074 99142.32627470451
0.010523260813182 0.292659353230487 0.002498250064840701 99145.23487931104
0.01052326081318199 0.292659353230487 0.0121017499351593 99145.23487931106
0.01269565217391304 0.293599923711992 0.0146 99142.32627470451
0.002178961413210093 0.2926659575817686 0.01209419437480839 99145.30193273335
0 0.2936134352224332 0.0146 99142.39843137551
0.002178961413210093 0.2926659575817686 0.002505805625191607 99145.30193273333
0 0.2936134352224332 0.0035897462258582 99142.39843137551
0 0.2936134352224332 0 99142.39843137551
0.003118873895651091 0.2936107768549453 0 99142.39318891193
0.003118873895651091 0.2936107768549453 0.0146 99142.39318891193
0.02539130434782608 0.2935615611356722 0 99142.1116242037
0.02539130434782608 0.2935615611356722 0.003530400837271207 99142.11162420371
0.02324787661006569 0.2926302384036122 0.002464941898424446 99144.99025712388
0.02324787661006569 0.2926302384036122 0.01213505810157555 99144.99025712392
0.02539130434782608 0.2935615611356722 0.0146 99142.11162420371
0.01579627947335306 0.2935924350028132 0 99142.31078673471
0.01485778945560496 0.2926490456202724 0.002486457873945713 99145.18914758739
0.01485778945560497 0.2926490456202724 0.01211354212605428 99145.1891475874
0.01579627947335306 0.2935924350028132 0.0146 99142.31078673474
0.03808695652173914 0.2934996335932861 0 99141.76230082649
0.03808695652173914 0.2934996335932861 0.00345955401766202 99141.76230082648
0.0359923811689571 0.2925811309859214 0.002408761655699347 99144.58010175943
0.0359923811689571 0.2925811309859214 0.01219123834430065 99144.58010175942
0.03808695652173914 0.2934996335932861 0.0146 99141.76230082648
0.02844941323320438 0.2935496946223832 0 99142.08638781005
0.02751626635710596 0.2926116762752359 0.002443706310671862 99144.90498963326
0.02751626635710596 0.2926116762752359 0.01215629368932813 99144.90498963326
0.02844941323320438 0.2935496946223832 0.0146 99142.08638781006
0.05078260869565217 0.2934130388353245 0 99141.28887860638
0.05078260869565217 0.2934130388353245 0.003360487221855112 99141.2888786064
0.04875747408966774 0.2925113277253584 0.002328904796882092 99144.01175090198
0.04875747408966774 0.2925113277253584 0.01227109520311791 99144.01175090198
0.05078260869565217 0.2934130388353245 0.0146 99141.28887860637
0.04107923005847253 0.2934835155818682 0 99141.72772917768
0.0401549526449304 0.2925544130000954 0.002378195541669953 99144.45650397254
0.0401549526449304 0.2925544130000954 0.01222180445833005 99144.45650397256
0.04107923005847253 0.2934835155818682 0.0146 99141.72772917768
0.06347826086956521 0.2933012112064872 0 99140.70380230321
0.06347826086956521 0.2933012112064872 0.003232553324556918 99140.70380230321
0.06154283805472482 0.2924211475959447 0.002225736237066447 99143.29617410146
0.06154283805472482 0.2924211475959447 0.01237426376293355 99143.29617410144
0.06347826086956521 0.2933012112064872 0.0146 99140.70380230321
0.05368488153607698 0.2933930450390674 0 99141.24541634484
0.05277399420226364 0.2924774024396157 0.002290093332603197 99143.85299051442
0.05277399420226364 0.2924774024396157 0.0123099066673968 99143.85299051442
0.05368488153607698 0.2933930450390674 0.0146 99141.24541634484
0.07617391304347827 0.2931629149628919 0 99140.0250015378
0.07617391304347827 0.2931629149628919 0.003074338600621614 99140.0250015378
0.074348342648811 0.2923107216938277 0.002099405953867346 99142.45011214874
0.074348342648811 0.2923107216938276 0.01250059404613265 99142.45011214873
0.07617391304347827 0.2931629149628919 0.0146 99140.02500153778
0.06626584484645377 0.2932777574450497 0 99140.6519751361
0.06537394386753693 0.2923812003183082 0.002180035447667495 99143.10670578999
0.06537394386753693 0.2923812003183082 0.0124199645523325 99143.10670578996
0.06626584484645377 0.2932777574450497 0.0146 99140.65197513608
0.08886956521739131 0.2929953048109145 0 99139.27219679006
0.08886956521739131 0.2929953048109145 0.002882587955524847 99139.27219679004
0.0871747697308092 0.2921792640784485 0.001949014809569438 99141.49186387555
0.0871747697308092 0.2921792640784485 0.01265098519043056 99141.49186387555
0.08886956521739131 0.2929953048109145 0.0146 99139.27219679004
0.07882081862266203 0.2931363446391193 0 99139.96520330274
0.0779549355641066 0.2922659412586729 0.002048175898722556 99142.23468949013
0.0779549355641066 0.2922659412586729 0.01255182410127744 99142.23468949011
0.07882081862266203 0.2931363446391193 0.0146 99139.96520330272
0.1015652173913043 0.2927897875399822 0 99138.45691421494
0.1015652173913043 0.2927897875399822 0.002647470518932462 99138.45691421496
0.1000262189363411 0.2920226537121354 0.001769848223207681 99140.43065101888
0.1000262189363411 0.2920226537121354 0.01283015177679234 99140.43065101889
0.1015652173913043 0.2927897875399823 0.0146 99138.45691421494
0.09134639257241581 0.2929653785256402 0 99139.20328550287
0.09051601210981923 0.2921306630816096 0.001893413926292118 99141.25521836356
0.09051601210981923 0.2921306630816096 0.01270658607370788 99141.25521836356
0.09134639257241581 0.2929653785256402 0.0146 99139.20328550288
0.1142608695652174 0.2924785422783591 0 99137.48230319908
0.1142608695652174 0.2924785422783591 0.00229139733962036 99137.48230319908
0.1129409594954136 0.2918024215812777 0.001517896580274341 99139.14335736209
0.1129409594954136 0.2918024215812777 0.01308210341972565 99139.14335736207
0.1142608695652174 0.2924785422783591 0.0146 99137.48230319905
0.1038273462092409 0.2927495591599513 0 99138.35926349656
0.1030515623619292 0.2919697253515357 0.001709296716218591 99140.17004513649
0.1030515623619292 0.2919697253515358 0.01289070328378143 99140.17004513647
0.1038273462092408 0.2927495591599513 0.0146 99138.35926349655
0.1269565217391304 0.2918417385619707 0 99136.36235429082
0.1269565217391304 0.2918417385619707 0.00156287629255432 99136.36235429082
0.1260639849821066 0.2913728171762938 0.001026417270577383 99137.44261526348
0.1260639849821066 0.2913728171762939 0.01357358272942265 99137.44261526348
0.1269565217391304 0.2918417385619707 0.0146 99136.3623542908
0.1161882745378993 0.2924130878968321 0 99137.30967976135
0.115507102637362 0.2917283599546064 0.001433168032966246 99138.76831811492
0.115507102637362 0.2917283599546064 0.01316683196703375 99138.76831811489
0.1161882745378993 0.2924130878968321 0.0146 99137.30967976134
0.1282222900985886 0.2917479972254223 0 99136.11366012438
0.1277526685298385 0.291275924008454 0.0009155688093143508 99136.93783993185
0.1282222900985886 0.2917479972254223 0.0146 99136.11366012436
0.1277526685298385 0.2912759240084541 0.01368443119068568 99136.93783993184
