# U  POINT_DATA 348
# x y z  U_x U_y U_z
0.1820078737677441 0.003349439532865674 0.00758349315234268 0.8635937339948013 -0.07318360804354315 0
0.1798461267392518 0.005999869999999999 0.0146 1.007665485047466 -0.09840175911884602 1.013750727278803e-22
0.1798461267392518 0.005999869999999999 0.002423045750139582 1.007665485047466 -0.09840175911884604 1.013750727278803e-22
0.1798461267392518 0.005999869999999999 0 1.007665485047466 -0.09840175911884604 1.013750727278803e-22
0.1833381849190673 0 0 0 0 0
0.1833381849190673 0 0.006438912656927476 0 0 0
0.1833381849190673 0 0.0146 0 0 0
0.1824710493122207 0.00223626937208568 0 0.4819055425902404 -0.006224878943587558 2.27669417039425e-22
0.1824710493122207 0.002236269372085681 0.0146 0.4819055425902396 -0.006224878943587762 2.276694170394238e-22
0.1777391304347826 0.007876096207095371 0 0.9817105294610815 -0.1376259617295415 0
0.1754089989501619 0.01089853733635443 0.0119203487926863 0.9838995797550415 -0.165409948883212 0
0.1754089989501619 0.01089853733635443 0.002679651207313703 0.9838995797550416 -0.165409948883212 0
0.1777391304347826 0.007876096207095371 0.004565582691557052 0.9817105294610808 -0.1376259617295414 0
0.1777391304347826 0.007876096207095371 0.0146 0.9817105294610813 -0.1376259617295415 0
0.173458544654192 0.01199974 0.0146 0.9613383406361009 -0.1840313745055306 0
0.173458544654192 0.01199974 0.009677326352320881 0.9613383406361009 -0.1840313745055306 0
0.173458544654192 0.01199974 0 0.9613383406361008 -0.1840313745055306 0
0.1743459722762118 0.01039615890294562 0 0.9864892522578398 -0.1610338461566892 0
0.1743459722762118 0.01039615890294562 0.0146 0.9864892522578399 -0.1610338461566892 0
0.1794277185820762 0.006797884093999838 0 0.9842218601691138 -0.1001398497250344 5.122374505668716e-23
0.1786779219216023 0.006443535815734825 0.001079610209842624 0.9717654845472508 -0.1283135727738177 0
0.1794277185820762 0.006797884093999838 0.0146 0.9842218601691135 -0.1001398497250343 5.122374505668698e-23
0.1786779219216023 0.006443535815734825 0.01352038979015737 0.9717654845472505 -0.1283135727738177 -2.440321722962879e-38
0.1712986506390261 0.01501017442434893 0.007308516384271347 0.8331989708562795 -0.2525224180811087 0
0.1699831906706406 0.01799961 0.0146 0.8610341995582202 -0.2493506358733112 0
0.1699831906706406 0.01799961 0.00568066927123681 0.8610341995582202 -0.2493506358733112 0
0.1699831906706406 0.01799961 0 0.8610341995582202 -0.2493506358733112 0
0.1715342217398243 0.01506721668757793 0 0.9191823128051133 -0.1899444124809512 0
0.1715342217398243 0.01506721668757793 0.0146 0.9191823128051133 -0.1899444124809512 0
0.1670365783659817 0.02305755583857473 0.0123079348791209 0.7234763170217218 -0.3612176826594277 0
0.1676498269130575 0.02399948 0.0146 0.7380676895930955 -0.3212376714277333 0
0.1670365783659817 0.02305755583857473 0.0022920651208791 0.7234763170217217 -0.3612176826594279 0
0.1676498269130575 0.02399948 0.002997300950016208 0.7380676895930955 -0.3212376714277333 0
0.1676498269130575 0.02399948 0 0.7380676895930955 -0.3212376714277333 0
0.1680456751842415 0.01941842574950867 0.003452526461877772 0.7663312295055345 -0.323679240339901 0
0.1693117823396953 0.02001677849537251 0 0.8013458682663079 -0.2484661220334712 0
0.1693117823396953 0.02001677849537251 0.0146 0.8013458682663078 -0.2484661220334711 0
0.1680456751842415 0.01941842574950867 0.01114747353812223 0.7663312295055346 -0.3236792403399011 0
0.1655241671553376 0.02977218003364109 0.01404720777136169 0.644533655258141 -0.4045856550646592 2.029374229671347e-21
0.1657766106433582 0.02999935 0.0146 0.6470399518710491 -0.3898522942029235 2.162546688503714e-21
0.1655241671553376 0.02977218003364109 0.0005527922286383094 0.6445336552581411 -0.4045856550646594 2.029374229671347e-21
0.1657766106433582 0.02999935 0.0008431022398620734 0.647039951871049 -0.3898522942029234 2.162546688503715e-21
0.1657766106433582 0.02999935 0 0.6470399518710491 -0.3898522942029234 2.162546688503715e-21
0.1665524558583689 0.02471261149524624 0.001735324237124326 0.702079595569955 -0.3711499660767124 -8.639539642998391e-38
0.1674448466659452 0.02513434869797574 0 0.7139553222098119 -0.320760718181485 3.069093932513993e-22
0.1674448466659452 0.02513434869797574 0.0146 0.7139553222098118 -0.3207607181814852 3.069093932513995e-22
0.1665524558583689 0.02471261149524624 0.01286467576287567 0.702079595569955 -0.3711499660767124 0
0.1650434782608695 0.03265942594154733 0 0.6129106648073482 -0.4186705670277415 3.257674566112034e-21
0.1645278918467086 0.03575555772756565 0.01400707562371496 0.5795343372236915 -0.4342591580572859 4.381279852396768e-21
0.1645278918467086 0.03575555772756567 0.0005929243762850396 0.5795343372236915 -0.4342591580572859 4.381279852396768e-21
0.1650434782608695 0.03265942594154733 0.006472991705918791 0.6129106648073482 -0.4186705670277415 3.257674566112035e-21
0.1650434782608695 0.03265942594154733 0.0146 0.6129106648073482 -0.4186705670277415 3.257674566112034e-21
0.1641246040704679 0.03599921999999999 0.0146 0.5770495383270713 -0.4324882173733554 4.3502556440832e-21
0.1641246040704679 0.03599921999999999 0.01354329468103811 0.5770495383270713 -0.4324882173733554 4.3502556440832e-21
0.1641246040704679 0.03599922000000001 0 0.5770495383270713 -0.4324882173733554 4.350255644083201e-21
0.1641852363119014 0.03559362129173232 0 0.5803898394474534 -0.4302634189087156 4.314659700914768e-21
0.1641852363119014 0.0355936212917323 0.0146 0.5803898394474534 -0.4302634189087156 4.314659700914768e-21
0.1657354521881387 0.03032637168822297 0 0.6409848049883966 -0.3892768660432561 2.242948302890803e-21
0.1654491706361419 0.03019107717386093 0.0004665462315632913 0.6394376790340097 -0.4066003493230412 2.488281882333204e-21
0.1657354521881387 0.03032637168822297 0.0146 0.6409848049883967 -0.3892768660432561 2.242948302890803e-21
0.1654491706361419 0.03019107717386093 0.01413345376843671 0.6394376790340097 -0.406600349323041 2.488281882333199e-21
0.1637298583596853 0.04137828308684962 0.001510662886361805 0.5220226826457901 -0.4558357910541951 1.227054846069254e-21
0.1644305874729974 0.03628886758966743 0.0007048244060528445 0.5744784986767468 -0.4369795548060201 4.441958894124464e-21
0.1637298583596853 0.04137828308684962 0.0130893371136382 0.5220226826457901 -0.4558357910541951 1.227054846069254e-21
0.1644305874729974 0.03628886758966741 0.01389517559394715 0.5744784986767466 -0.43697955480602 4.441958894124459e-21
0.1628852061721808 0.04199909000000001 0.0146 0.5167745806518246 -0.4512873545308045 6.399411225508976e-22
0.1628852061721808 0.04199909000000001 0.01211798709800795 0.5167745806518245 -0.4512873545308045 6.399411225508975e-22
0.1628852061721808 0.04199909 0 0.5167745806518247 -0.4512873545308046 6.39941122550904e-22
0.1630118870167962 0.04103897521498528 0 0.5246038477784393 -0.447021174843887 8.341087784241899e-22
0.1630118870167962 0.04103897521498528 0.0146 0.5246038477784393 -0.447021174843887 8.341087784241896e-22
0.1630195626184472 0.04704247264675854 0.002327502988785628 0.4679975552646423 -0.4717089589739473 -2.793123841921636e-21
0.1635196413471719 0.04271924389663662 0.0017524124507522 0.5098355995325139 -0.4615345487144512 -7.183143050302529e-23
0.1630195626184472 0.04704247264675855 0.01227249701121437 0.4679975552646424 -0.4717089589739474 -2.793123841921639e-21
0.1635196413471719 0.04271924389663662 0.0128475875492478 0.5098355995325139 -0.4615345487144512 -7.18314305030264e-23
0.161920002391079 0.04799896000000001 0.0146 0.4612323684471876 -0.4640559056847746 -2.362836028522155e-21
0.161920002391079 0.04799896000000001 0.0110080027497409 0.4612323684471877 -0.4640559056847746 -2.362836028522155e-21
0.161920002391079 0.04799895999999999 0 0.4612323684471877 -0.4640559056847745 -2.362836028522155e-21
0.1620874985317926 0.04660198614988623 0 0.4722188533096616 -0.4589589478203531 -2.161860123684826e-21
0.1620874985317926 0.04660198614988624 0.0146 0.4722188533096615 -0.4589589478203532 -2.161860123684828e-21
0.1620784790686627 0.05778041162391502 0.003409749071037825 0.4075330251030796 -0.4830823814979238 -1.211355361497239e-21
0.1626308219797282 0.05042421149581282 0.002774554723312516 0.4492995434293172 -0.4781478976216905 -2.467098748842113e-21
0.1620784790686627 0.05778041162391502 0.01119025092896217 0.4075330251030796 -0.4830823814979238 -1.211355361497239e-21
0.1626308219797282 0.05042421149581282 0.01182544527668749 0.4492995434293172 -0.4781478976216905 -2.467098748842116e-21
0.1606658695044559 0.06076088952380953 0.0146 0.3927925905515426 -0.4737655984083836 -1.852643704328267e-22
0.1606658695044559 0.06076088952380952 0.009565749930124327 0.3927925905515426 -0.4737655984083835 -1.852643704328283e-22
0.1606658695044559 0.06076088952380952 0 0.3927925905515426 -0.4737655984083835 -1.852643704328284e-22
0.1610050083310114 0.0567013368578367 0 0.4112844607473714 -0.4662418412305529 -7.254715010138978e-22
0.1610050083310114 0.0567013368578367 0.0146 0.4112844607473714 -0.466241841230553 -7.25471501013898e-22
0.1607448167904587 0.06695347679749651 0.007228163649474047 0.3580875191962533 -0.4958914758562983 1.366488198005652e-21
0.1593823641172629 0.07352281904761904 0.0146 0.3259835421221566 -0.4735540974259346 6.804841547236826e-22
0.1593823641172629 0.07352281904761904 0.008089718734852345 0.3259835421221566 -0.4735540974259346 6.804841547236826e-22
0.1593823641172629 0.07352281904761904 0 0.3259835421221566 -0.4735540974259346 6.804841547236826e-22
0.1598606610628244 0.06831294507579193 0 0.3496500484772391 -0.464585557947798 5.934304661298818e-22
0.1598606610628245 0.06831294507579193 0.0146 0.3496500484772392 -0.4645855579477981 5.934304661298802e-22
0.1589352442074027 0.07988423853346921 0.007292546554712732 0.3020245047078733 -0.5120592655435097 1.058516064010879e-23
0.1583735851144816 0.08628474857142857 0.0146 0.2767982215036767 -0.4410792083293995 0
0.1583735851144816 0.08628474857142857 0.006929622881653896 0.2767982215036767 -0.4410792083293995 0
0.1583735851144816 0.08628474857142857 0 0.2767982215036766 -0.4410792083293997 0
0.1588485411613619 0.0800574709502915 0 0.3001428043355597 -0.4312572442117933 4.300879658340298e-22
0.1588485411613619 0.0800574709502915 0.0146 0.3001428043355597 -0.4312572442117935 4.300879658340296e-22
0.1573124036965033 0.09274673673468391 0.007330897669967316 0.257634169063044 -0.5144963603988544 0
0.1575329662351217 0.09904667809523809 0.0146 0.2415194455525717 -0.4124463861209205 0
0.1575329662351218 0.09904667809523808 0.005962911170390045 0.2415194455525719 -0.4124463861209203 0
0.1575329662351218 0.09904667809523808 0 0.2415194455525719 -0.4124463861209203 0
0.1579959309062705 0.09196233918747311 0 0.2640810365263954 -0.40064446097064 0
0.1579959309062705 0.09196233918747311 0.0146 0.2640810365263954 -0.4006444609706399 0
0.1562103708474319 0.1055399991569562 0.007342846237167498 0.2204123979054708 -0.5137462352523052 0
0.1568200999884699 0.1118086076190476 0.0146 0.2107301821437592 -0.409220741692702 0
0.1568200999884699 0.1118086076190476 0.005143114986740432 0.2107301821437592 -0.409220741692702 0
0.1568200999884699 0.1118086076190476 0 0.2107301821437592 -0.409220741692702 0
0.157257297344656 0.1039817791307463 0 0.2320624764195763 -0.3970956039165101 0
0.157257297344656 0.1039817791307462 0.0146 0.2320624764195763 -0.3970956039165106 0
0.1553144115950529 0.1215884646457487 0.01118842666568916 0.1815207870188716 -0.5141334926692946 -4.802690530753412e-21
0.156213134726302 0.1245705371428571 0.0146 0.1809962839076525 -0.4137276871748559 -7.813078093399328e-21
0.1553144115950529 0.1215884646457487 0.003411573334310838 0.1815207870188716 -0.5141334926692946 -4.802690530753409e-21
0.156213134726302 0.1245705371428571 0.004445104935247393 0.1809962839076525 -0.4137276871748559 -7.813078093399323e-21
0.156213134726302 0.1245705371428571 0 0.1809962839076525 -0.4137276871748559 -7.813078093399323e-21
0.1555455817544205 0.1150230570938365 0.007299999999999999 0.1962421495893098 -0.5131074303349049 0
0.1566160412824174 0.1160991049303122 0 0.2006337673500894 -0.4018892083138349 -1.702510762426657e-21
0.1566160412824174 0.1160991049303122 0.0146 0.2006337673500893 -0.4018892083138349 -1.702510762426654e-21
0.1547415063952016 0.1349262902073647 0.01184726764551807 0.1544517769076015 -0.5141900939542873 -2.482666174778869e-20
0.1556921275352018 0.1373324666666667 0.0146 0.1545990945310322 -0.4218562249830295 -1.519377951184844e-20
0.1547415063952016 0.1349262902073647 0.002752732354481931 0.1544517769076015 -0.5141900939542874 -2.482666174778869e-20
0.1556921275352018 0.1373324666666667 0.003845946665482123 0.1545990945310323 -0.4218562249830289 -1.519377951184842e-20
0.1556921275352018 0.1373324666666667 0 0.1545990945310322 -0.4218562249830295 -1.519377951184844e-20
0.1549609082321685 0.127197260821192 0.003005044466993845 0.169315095818502 -0.5133402186227665 -2.01512188423862e-20
0.1560607623649282 0.1283028567162647 0 0.1724897807921645 -0.410656420391336 -8.509337402506659e-21
0.1560607623649282 0.1283028567162647 0.0146 0.1724897807921646 -0.4106564203913353 -8.509337402506632e-21
0.1549609082321685 0.127197260821192 0.01159495553300616 0.1693150958185021 -0.5133402186227665 -2.01512188423862e-20
0.1543053723259711 0.1481266306279291 0.01234882182513321 0.1314209079009463 -0.5142511046675349 -1.733904877611319e-20
0.1552414263515439 0.1500943961904762 0.0146 0.1316152851099455 -0.4308132255984798 -7.459484808499953e-21
0.1543053723259711 0.1481266306279291 0.002251178174866782 0.1314209079009463 -0.514251104667535 -1.733904877611319e-20
0.1552414263515439 0.1500943961904762 0.003327640304275534 0.1316152851099455 -0.4308132255984798 -7.459484808499956e-21
0.1552414263515439 0.1500943961904762 0 0.1316152851099455 -0.4308132255984798 -7.459484808499955e-21
0.1545065846306758 0.1395024949579645 0.002482572325277202 0.1457564374715042 -0.5136118887305129 -2.4145643416163e-20
0.1555774736399172 0.1405789745177813 0 0.1478348035592442 -0.4204009799860658 -1.400253050741867e-20
0.1555774736399172 0.1405789745177813 0.0146 0.1478348035592443 -0.4204009799860659 -1.400253050741868e-20
0.1545065846306758 0.1395024949579645 0.0121174276747228 0.1457564374715042 -0.5136118887305132 -2.414564341616304e-20
0.1539635683611242 0.1612321484960458 0.01274189638470717 0.1116040297708036 -0.5142290291342891 -1.099931091893069e-35
0.1548496868491345 0.1628563257142857 0.0146 0.1115854861187617 -0.4395792057778658 0
0.1539635683611242 0.1612321484960458 0.001858103615292831 0.1116040297708036 -0.5142290291342891 -1.12492952579973e-35
0.1548496868491345 0.1628563257142857 0.002877139876504708 0.1115854861187617 -0.4395792057778658 0
0.1548496868491345 0.1628563257142857 0 0.1115854861187617 -0.4395792057778658 0
0.1541449365020215 0.1519008883776747 0.002066676977324756 0.1251094435484064 -0.5137993937630999 -6.456798678829329e-21
0.1551548134071272 0.1529160373211188 0 0.1262567968049652 -0.4300081277480693 -7.015283173744278e-21
0.1551548134071272 0.1529160373211188 0.0146 0.1262567968049652 -0.4300081277480693 -7.015283173744269e-21
0.1541449365020215 0.1519008883776747 0.01253332302267524 0.1251094435484064 -0.5137993937630999 -6.456798678829328e-21
0.153690162139098 0.1742689115525539 0.01305631354003727 0.09437816311502498 -0.5140979587331405 0
0.1545083785744877 0.1756182552380952 0.0146 0.09411059742983409 -0.4477596316535697 0
0.153690162139098 0.1742689115525539 0.001543686459962735 0.09437816311502499 -0.5140979587331405 0
0.1545083785744877 0.1756182552380952 0.002484635360660887 0.09411059742983412 -0.4477596316535706 0
0.1545083785744877 0.1756182552380952 0 0.09411059742983408 -0.4477596316535697 0
0.1538519679279355 0.1643683198919327 0.001729763117125892 0.1069529930234363 -0.5138632297085328 0
0.1547841880096224 0.1653054066063603 0 0.1073936621100525 -0.4390424994670493 0
0.1547841880096224 0.1653054066063603 0.0146 0.1073936621100525 -0.4390424994670493 0
0.1538519679279355 0.1643683198919327 0.01287023688287411 0.1069529930234363 -0.5138632297085328 0
0.1534682667703444 0.1872538948446064 0.01331149321410389 0.07923169060920612 -0.5138247384325643 0
0.1542109866493591 0.1883801847619048 0.0146 0.07879339164580275 -0.4551996432052354 0
0.1534682667703444 0.1872538948446064 0.001288506785896103 0.07923169060920615 -0.5138247384325647 0
0.1542109866493591 0.1883801847619048 0.002142634646763054 0.07879339164580275 -0.4551996432052354 0
0.1542109866493591 0.1883801847619048 0 0.07879339164580275 -0.4551996432052354 0
0.1536115056121964 0.176888531772209 0.001453231454025867 0.09090124134740485 -0.5137936980361321 0
0.1544589266632412 0.1777403767646741 0 0.0908823310859678 -0.4473658000166251 0
0.1544589266632412 0.1777403767646741 0.0146 0.0908823310859678 -0.447365800016625 0
0.1536115056121964 0.176888531772209 0.01314676854597413 0.09090124134740486 -0.513793698036132 0
0.1532858505945567 0.200199192843506 0.01352127181625971 0.06573475187071552 -0.5134372261517771 0
0.1539510463422488 0.2011421142857142 0.0146 0.06519348807067835 -0.461963388835533 0
0.1532858505945567 0.200199192843506 0.001078728183740292 0.06573475187071552 -0.513437226151777 0
0.1539510463422488 0.2011421142857142 0.001843703293586127 0.06519348807067835 -0.461963388835533 0
0.1539510463422488 0.2011421142857142 0 0.06519348807067835 -0.461963388835533 0
0.1534124315441737 0.1894503479665636 0.001224296275799751 0.07658656258962571 -0.5135459072451748 0
0.1541736042965647 0.1902154944031853 0 0.07628178847126836 -0.4549296275126536 0
0.1541736042965647 0.1902154944031853 0.0146 0.07628178847126836 -0.4549296275126535 0
0.1534124315441737 0.1894503479665636 0.01337570372420025 0.07658656258962568 -0.5135459072451756 0
0.1531344905012127 0.213113272632423 0.01369533592360528 0.05352006862235464 -0.5131537340895636 1.548862203358873e-20
0.1537245246023233 0.2139040438095238 0.0146 0.05294046629335395 -0.468213020159465 1.673323737027144e-20
0.1531344905012127 0.213113272632423 0.0009046640763947175 0.05352006862235465 -0.5131537340895639 1.548862203358874e-20
0.1537245246023233 0.2139040438095238 0.001583203292671886 0.05294046629335395 -0.4682130201594651 1.673323737027144e-20
0.1537245246023233 0.2139040438095238 0 0.05294046629335395 -0.4682130201594651 1.673323737027144e-20
0.15324562131411 0.202044596431475 0.001032464511226539 0.06369517743000969 -0.5132318176867029 -1.67430685500008e-35
0.1539229423835701 0.2027254534394516 0 0.06323785007662003 -0.4618155665881759 1.11071014180245e-21
0.1539229423835701 0.2027254534394516 0.0146 0.06323785007662004 -0.4618155665881757 1.110710141802449e-21
0.15324562131411 0.202044596431475 0.01356753548877346 0.06369517743000967 -0.5132318176867028 -2.191466119128284e-35
0.1530113056162624 0.2259990301249418 0.01383699854129819 0.04220698445150589 -0.5133329759568653 2.743275767918753e-20
0.1535327983546189 0.2266659733333333 0.0146 0.04172344335473101 -0.4741728098828388 2.482134549987404e-20
0.1530113056162624 0.2259990301249419 0.0007630014587018111 0.04220698445150586 -0.5133329759568649 2.743275767918747e-20
0.1535327983546189 0.2266659733333334 0.00136271810781171 0.04172344335473105 -0.4741728098828394 2.482134549987404e-20
0.1535327983546189 0.2266659733333334 0 0.04172344335473104 -0.4741728098828388 2.482134549987398e-20
0.1531058364279645 0.2146660113254691 0.0008717118921591642 0.0519092250532121 -0.5130558010384342 1.984458062412626e-20
0.1537040433817107 0.2152673412043744 0 0.05149449085353585 -0.4682324825672102 1.674731636650919e-20
0.1537040433817107 0.2152673412043744 0.0146 0.05149449085353584 -0.4682324825672101 1.67473163665092e-20
0.1531058364279645 0.2146660113254691 0.01372828810784084 0.0519092250532121 -0.5130558010384341 1.984458062412626e-20
0.1529145027227825 0.2388582678994319 0.01394832186880012 0.0312695901009832 -0.5152519922652674 -1.92914385937299e-22
0.1533769719767103 0.2394279028571429 0.0146 0.03088441810107905 -0.4810930730152732 -9.231815414410905e-22
0.1529145027227825 0.2388582678994318 0.0006516781311998798 0.03126959010098321 -0.5152519922652681 -1.929143859371791e-22
0.1533769719767103 0.2394279028571428 0.001183517773216895 0.03088441810107906 -0.4810930730152733 -9.231815414410506e-22
0.1533769719767103 0.2394279028571428 0 0.03088441810107906 -0.4810930730152732 -9.231815414410518e-22
0.15299160328735 0.2273131113572736 0.0007403437804525627 0.04088598963821613 -0.5134432909023138 2.377199078202588e-20
0.153518430362979 0.2278426887211074 0 0.04054645742086986 -0.4745706104975157 2.31870230327692e-20
0.153518430362979 0.2278426887211073 0.0146 0.0405464574208699 -0.474570610497515 2.318702303276922e-20
0.15299160328735 0.2273131113572734 0.01385965621954744 0.04088598963821616 -0.5134432909023137 2.377199078202594e-20
0.1528511224987048 0.2516839085222697 0.0140212091264894 0.02055765612923737 -0.5233953305041087 -1.11248938469225e-20
0.1532757511405531 0.2521898323809524 0.0146 0.0200243603803813 -0.4929376332152042 -8.987204102009975e-21
0.1528511224987048 0.2516839085222697 0.0005787908735106033 0.02055765612923737 -0.5233953305041088 -1.112489384692251e-20
0.1532757511405531 0.2521898323809524 0.001067113811636124 0.0200243603803813 -0.4929376332152043 -8.987204102009978e-21
0.1532757511405531 0.2521898323809524 0 0.0200243603803813 -0.4929376332152043 -8.98720410200998e-21
0.1529012372323343 0.2399842030722286 0.0006364228171844429 0.03009237547525528 -0.5159288075340559 -3.327418284090597e-21
0.1533688316280949 0.2404542385333991 0 0.02957619044434699 -0.4823605974028004 -9.175548393859335e-22
0.1533688316280949 0.2404542385333992 0.0146 0.02957619044434697 -0.4823605974027995 -9.17554839386014e-22
0.1529012372323343 0.2399842030722287 0.01396357718281556 0.03009237547525526 -0.515928807534055 -3.327418284090685e-21
0.1530194065134839 0.2642766755086078 0.01382768250949345 0.01987696499206458 -0.5271799942989944 0
0.1536379328390261 0.2649517619047619 0.0146 0.02025552763837644 -0.4848081643511357 0
0.1530194065134839 0.2642766755086078 0.0007723174905065529 0.01987696499206458 -0.5271799942989944 0
0.1536379328390261 0.2649517619047619 0.001483622764880044 0.02025552763837643 -0.4848081643511357 0
0.1536379328390261 0.2649517619047619 0 0.02025552763837643 -0.4848081643511357 0
0.152845654619401 0.2526902598153974 0.0005725028123111701 0.01949742652848041 -0.525675112483863 -8.282382235816119e-21
0.153303000362306 0.2531499931208641 0 0.01977639498971199 -0.4942984845576061 -8.311039849243656e-21
0.153303000362306 0.2531499931208641 0.0146 0.01977639498971199 -0.4942984845576058 -8.311039849243653e-21
0.152845654619401 0.2526902598153974 0.01402749718768883 0.0194974265284804 -0.5256751124838629 -8.282382235816113e-21
0.152907395973887 0.2771512003203692 0.01395649463002988 0.05096251933321851 -0.4917125979690899 -6.520960482023548e-21
0.1533447248203118 0.2777136914285714 0.0146 0.05308008353478448 -0.4605033222633345 -7.151363317265717e-21
0.152907395973887 0.2771512003203692 0.0006435053699701243 0.05096251933321849 -0.4917125979690899 -6.520960482023544e-21
0.1533447248203118 0.2777136914285714 0.001146433543358638 0.05308008353478447 -0.4605033222633345 -7.151363317265714e-21
0.1533447248203118 0.2777136914285714 0 0.05308008353478447 -0.4605033222633345 -7.151363317265712e-21
0.1531191779621911 0.2657271406040956 0.0008870546565198199 0.02241926071221529 -0.525375598599099 0
0.1537275378305541 0.2663386764006667 0 0.02493283944918655 -0.4826737986315281 -7.771810235821486e-22
0.1537275378305541 0.2663386764006667 0.0146 0.02493283944918656 -0.4826737986315281 -7.771810235821496e-22
0.1531191779621911 0.2657271406040956 0.01371294534348018 0.02241926071221528 -0.5253755985990991 0
0.1396521739130435 0.290025012013202 0 0.04566611761754295 -0.4353360122699005 -1.836730981056522e-35
0.1394172817923102 0.290239502582924 0.01432987406115679 0.0454952861717977 -0.4347830941962202 -1.265028498735498e-35
0.1394172817923102 0.2902395025829241 0.0002701259388432417 0.04549528617179766 -0.4347830941962202 0
0.1396521739130435 0.290025012013202 0.01408449092280772 0.04566611761754297 -0.4353360122699006 0
0.1396521739130435 0.290025012013202 0.0146 0.04566611761754297 -0.4353360122699006 0
0.1365829090227784 0.2904756209523809 0.0146 0.03925551986848715 -0.4284061126541978 -4.758334256488544e-21
0.1365829090227785 0.2904756209523809 0.01107034537619527 0.03925551986848735 -0.4284061126541979 -4.758334256488438e-21
0.1365829090227782 0.290475620952381 0 0.03925551986848674 -0.428406112654197 -4.758334256488952e-21
0.1392331657800238 0.2900544253973792 0 0.04548855600687577 -0.4351105008941973 -2.772795022844114e-22
0.1392331657800239 0.2900544253973792 0.0146 0.04548855600687581 -0.4351105008941973 -2.772795022843747e-22
0.1523478260869565 0.2795412704765266 0 0.06196654960584617 -0.4783363771401018 -8.120261192465994e-21
0.1497611157135024 0.2878754067190106 0.01162528307052776 0.086775297390839 -0.441923201113439 -8.245973260265579e-21
0.1497611157135024 0.2878754067190105 0.002974716929472232 0.08677529739083895 -0.441923201113439 -8.245973260265585e-21
0.1523478260869565 0.2795412704765266 0.002090800928681307 0.06196654960584613 -0.4783363771401019 -8.120261192465986e-21
0.1523478260869565 0.2795412704765266 0.0146 0.06196654960584615 -0.4783363771401019 -8.120261192465991e-21
0.1399595674082546 0.2901666227167469 0.01424649748050722 0.04614099843609023 -0.4352421951004714 -9.27068291351952e-36
0.1399595674082546 0.290166622716747 0.0003535025194928174 0.0461409984360901 -0.4352421951004714 1.670654316707164e-35
0.1481462269850765 0.2862520875024276 0 0.08757394270585307 -0.4436656854035785 -9.311297476412531e-21
0.1481462269850765 0.2862520875024277 0.0146 0.08757394270585336 -0.4436656854035783 -9.311297476412543e-21
0.1533252712871838 0.278696239358194 0 0.06267196592068712 -0.4670439677928507 -7.672264781067726e-21
0.1530205766003504 0.2783899540200026 0.0007736630904029764 0.05930730153521662 -0.4829750425781875 -9.425094486291751e-21
0.1533252712871838 0.278696239358194 0.0146 0.06267196592068712 -0.4670439677928507 -7.672264781067731e-21
0.1530205766003504 0.2783899540200026 0.01382633690959702 0.05930730153521663 -0.4829750425781875 -9.425094486291756e-21
0.01269565217391304 0.293599923711992 0 -0.002662638762858586 -0.3895356367616983 0
0.01269565217391304 0.293599923711992 0.003574288684577074 -0.002662638762858585 -0.3895356367616982 0
0.010523260813182 0.292659353230487 0.002498250064840701 0.0004678180006630161 -0.3463946758736329 0
0.01052326081318199 0.292659353230487 0.0121017499351593 0.0004678180006630208 -0.3463946758736329 0
0.01269565217391304 0.293599923711992 0.0146 -0.002662638762858585 -0.3895356367616982 0
0.002178961413210093 0.2926659575817686 0.01209419437480839 7.039716484099372e-05 -0.1092859628094991 0
0 0.2936134352224332 0.0146 0 0 0
0.002178961413210093 0.2926659575817686 0.002505805625191607 7.039716484099372e-05 -0.1092859628094991 0
0 0.2936134352224332 0.0035897462258582 0 0 0
0 0.2936134352224332 0 0 0 0
0.003118873895651091 0.2936107768549453 0 -0.003129993827419863 -0.1173406580736433 0
0.003118873895651091 0.2936107768549453 0.0146 -0.003129993827419864 -0.1173406580736433 0
0.02539130434782608 0.2935615611356722 0 -0.006013895547826238 -0.3907790320708253 0
0.02539130434782608 0.2935615611356722 0.003530400837271207 -0.006013895547826238 -0.3907790320708253 0
0.02324787661006569 0.2926302384036122 0.002464941898424446 0.0008601349888330813 -0.3480008568996349 0
0.02324787661006569 0.2926302384036122 0.01213505810157555 0.0008601349888330672 -0.3480008568996351 0
0.02539130434782608 0.2935615611356722 0.0146 -0.006013895547826249 -0.3907790320708255 0
0.01579627947335306 0.2935924350028132 0 -0.006480654629707393 -0.3898928873790247 0
0.01485778945560496 0.2926490456202724 0.002486457873945713 0.000512903399976098 -0.346854319688738 0
0.01485778945560497 0.2926490456202724 0.01211354212605428 0.0005129033999761008 -0.346854319688738 0
0.01579627947335306 0.2935924350028132 0.0146 -0.0064806546297074 -0.3898928873790247 0
0.03808695652173914 0.2934996335932861 0 -0.00866882412065785 -0.3927534775241495 0
0.03808695652173914 0.2934996335932861 0.00345955401766202 -0.008668824120657634 -0.3927534775241489 0
0.0359923811689571 0.2925811309859214 0.002408761655699347 0.001302121603981578 -0.350608632900463 0
0.0359923811689571 0.2925811309859214 0.01219123834430065 0.00130212160398158 -0.3506086329004629 0
0.03808695652173914 0.2934996335932861 0.0146 -0.008668824120657847 -0.3927534775241495 0
0.02844941323320438 0.2935496946223832 0 -0.00925052624922356 -0.3913829243753825 0
0.02751626635710596 0.2926116762752359 0.002443706310671862 0.0009370065782125877 -0.3487961591721163 0
0.02751626635710596 0.2926116762752359 0.01215629368932813 0.0009370065782126033 -0.3487961591721163 0
0.02844941323320438 0.2935496946223832 0.0146 -0.009250526249223555 -0.3913829243753827 0
0.05078260869565217 0.2934130388353245 0 -0.01131462902787191 -0.3954523464819595 0
0.05078260869565217 0.2934130388353245 0.003360487221855112 -0.01131462902787192 -0.3954523464819595 0
0.04875747408966774 0.2925113277253584 0.002328904796882092 0.001740699054277979 -0.354300537536811 0
0.04875747408966774 0.2925113277253584 0.01227109520311791 0.001740699054277969 -0.354300537536811 0
0.05078260869565217 0.2934130388353245 0.0146 -0.01131462902787192 -0.3954523464819595 0
0.04107923005847253 0.2934835155818682 0 -0.01203804819074789 -0.3935570803868839 0
0.0401549526449304 0.2925544130000954 0.002378195541669953 0.00137886100112249 -0.351757694081665 0
0.0401549526449304 0.2925544130000954 0.01222180445833005 0.001378861001122487 -0.351757694081665 0
0.04107923005847253 0.2934835155818682 0.0146 -0.01203804819074787 -0.3935570803868839 0
0.06347826086956521 0.2933012112064872 0 -0.01369898956222737 -0.3988596582112482 0
0.06347826086956521 0.2933012112064872 0.003232553324556918 -0.01369898956222737 -0.3988596582112482 0