# p  POINT_DATA 372
# x y z  p
0.2539130434782608 0.09824032072371842 0 97667.39259568724
0.2534753255310743 0.0986066750519301 0.01409662436073548 97648.90573516391
0.2534753255310743 0.09860667505193012 0.0005033756392645307 97648.90573516391
0.2539130434782608 0.0982403207237184 0.01367750488652808 97667.39259568723
0.2539130434782608 0.09824032072371838 0.0146 97667.39259568723
0.2446843317546804 0.09904667809523809 0.0146 97669.85636704473
0.2446843317546804 0.09904667809523809 0.003986981517882371 97669.85636704473
0.2446843317546803 0.09904667809523811 0 97669.85636704473
0.2531524796091386 0.09828214372054574 0 97670.33406247356
0.2531524796091386 0.09828214372054572 0.0146 97670.33406247354
0.2666086956521739 0.09899571426369184 0 97654.52593019872
0.2665766279546723 0.09901444298908527 0.01456312214787322 97653.5169752246
0.2665766279546724 0.09901444298908527 3.687785212677715e-05 97653.51697522461
0.2666086956521739 0.09899571426369184 0.01454169596852989 97654.52593019872
0.2666086956521739 0.09899571426369184 0.0146 97654.52593019872
0.2544079438009312 0.09854919415721655 0.01403086462892909 97649.63250480824
0.2544079438009312 0.09854919415721658 0.0005691353710709225 97649.63250480822
0.2665574856939951 0.09899520079669191 0 97654.65474203657
0.2665574856939951 0.09899520079669193 0.0146 97654.65474203655
0.266635610720498 0.09901962251744069 0.01456904767142733 97653.58975271642
0.266635610720498 0.0990196225174407 3.095232857267113e-05 97653.58975271643
0.266776694127546 0.09904667809523809 0.0146 97653.38356614858
0.266776694127546 0.09904667809523809 0.0001931982466778473 97653.38356614858
0.266776694127546 0.09904667809523809 0 97653.38356614858
0.2158260869565218 0.1086774984153655 0 97685.61232273041
0.2143245324865154 0.1102992143196818 0.01287321235949267 97649.71393619729
0.2143245324865154 0.1102992143196818 0.001726787640507333 97649.71393619731
0.2158260869565218 0.1086774984153655 0.01101792455533696 97685.61232273042
0.2158260869565218 0.1086774984153655 0.0146 97685.61232273042
0.2103264782085473 0.1118086076190476 0.0146 97661.88342237423
0.2103264782085473 0.1118086076190476 0.008275449939829375 97661.88342237423
0.2103264782085473 0.1118086076190476 0 97661.88342237423
0.213306072052994 0.1092754370377162 0 97701.66364973545
0.213306072052994 0.1092754370377162 0.0146 97701.66364973545
0.2285217391304348 0.1032942356309511 0 97703.96779467513
0.2215553141568189 0.1071537098033467 0.007062870426780588 97617.35507943144
0.2285217391304348 0.1032942356309511 0.004859323185080403 97703.96779467513
0.2285217391304348 0.1032942356309511 0.0146 97703.96779467515
0.2224924326564711 0.1057478252941916 0 97722.01381287813
0.2224924326564711 0.1057478252941916 0.0146 97722.01381287811
0.2412173913043479 0.09935219250408647 0 97676.97638682272
0.2412173913043479 0.09935219250408647 0.0003495169253884631 97676.97638682272
0.2410277663514601 0.09923729298067757 0.0002180686958209766 97676.56972119126
0.2410277663514601 0.09923729298067759 0.01438193130417903 97676.56972119129
0.2412173913043479 0.09935219250408647 0.0146 97676.97638682273
0.231863878281097 0.1024062648037616 0 97713.2596289051
0.2304875028606208 0.1010227040481736 0.002260628289713865 97706.75759585193
0.2304875028606208 0.1010227040481736 0.01233937171028613 97706.7575958519
0.231863878281097 0.1024062648037616 0.0146 97713.2596289051
0.2415117543934641 0.09934257789985236 0 97677.02080729489
0.2413715942193525 0.09920168602288902 0.0001773333522553255 97676.93996661255
0.2415117543934641 0.09934257789985236 0.0146 97677.0208072949
0.2413715942193525 0.09920168602288901 0.01442266664774468 97676.93996661255
0.279304347826087 0.1025683684729063 0 97642.23310464887
0.279304347826087 0.1025683684729063 0.004028911099848214 97642.23310464887
0.2775718884947522 0.100788181689263 0.001992328231034956 97642.7820502828
0.2775718884947522 0.100788181689263 0.01260767176896504 97642.78205028281
0.279304347826087 0.1025683684729063 0.0146 97642.23310464887
0.292 0.1078744140699417 0 97605.55858056765
0.292 0.1078744140699417 0.0100991738741557 97605.55858056765
0.2852771966565092 0.1044112287567164 0.007156258718328539 97606.89269901236
0.292 0.1078744140699417 0.0146 97605.55858056765
0.2852990332467696 0.1050726586284288 0 97627.49688834381
0.2852990332467696 0.1050726586284288 0.0146 97627.49688834383
0.1904347826086956 0.1243950114265729 0 97642.17712238728
0.190360668007446 0.1244960356280963 0.01451476820856295 97640.84055099361
0.190360668007446 0.1244960356280963 8.523179143704574e-05 97640.84055099363
0.1904347826086956 0.1243950114265729 0.0143991937306214 97642.17712238726
0.1904347826086956 0.1243950114265729 0.0146 97642.17712238728
0.1902019671615003 0.1245705371428571 0.0146 97641.20700819242
0.1902019671615003 0.1245705371428571 0.01433226223572539 97641.20700819242
0.1902019671615003 0.1245705371428571 0 97641.20700819242
0.1902916710646279 0.124426678488381 0 97643.34119007552
0.1902916710646279 0.124426678488381 0.0146 97643.34119007552
0.2031304347826087 0.115944029442302 0 97670.48363383442
0.1987210082643303 0.1201380913184263 0.007299999999999999 97614.85841272876
0.2031304347826087 0.115944029442302 0.004731036831606933 97670.48363383443
0.2031304347826087 0.115944029442302 0.0146 97670.48363383443
0.1906816477118999 0.1243223832862592 0.01431610513131505 97638.90100259073
0.1906816477118999 0.1243223832862593 0.0002838948686849435 97638.90100259072
0.1975511768269591 0.1189621528038896 0 97699.44587633817
0.1975511768269591 0.1189621528038896 0.0146 97699.44587633817
0.206198222831403 0.114892410982308 0 97677.20642119183
0.204857212917504 0.1135444003580824 0.001985794855129645 97674.46668615496
0.206198222831403 0.114892410982308 0.0146 97677.20642119185
0.2048572129175041 0.1135444003580824 0.01261420514487035 97674.46668615496
0.1777391304347826 0.1329332594168413 0 97651.57955052763
0.1758279830943474 0.1354113422270443 0.01240218055849955 97626.58515140612
0.1758279830943474 0.1354113422270442 0.002197819441500444 97626.58515140614
0.1777391304347826 0.1329332594168414 0.009567185351743224 97651.57955052765
0.1777391304347826 0.1329332594168414 0.0146 97651.57955052763
0.1715351446168752 0.1373324666666667 0.0146 97636.42450642123
0.1715351446168752 0.1373324666666667 0.007465416309406555 97636.42450642124
0.1715351446168752 0.1373324666666666 0 97636.42450642123
0.1745198515739773 0.134096381637218 0 97670.76112744871
0.1745198515739773 0.1340963816372181 0.0146 97670.7611274487
0.183122702036542 0.1299822135519832 0 97670.4563233987
0.1820866354597733 0.1289407382143187 0.007300000000000003 97639.66258621444
0.183122702036542 0.1299822135519832 0.0146 97670.45632339868
0.1523478260869565 0.1494072053794382 0 97627.83051982148
0.1520442213146723 0.149789206456707 0.01425085451187319 97624.18233957619
0.1520442213146723 0.149789206456707 0.0003491454881268082 97624.18233957622
0.1523478260869565 0.1494072053794382 0.01381383472440926 97627.83051982148
0.1523478260869565 0.1494072053794382 0.0146 97627.83051982148
0.1512323713144557 0.1500943961904762 0.0146 97625.30554447492
0.1512323713144557 0.1500943961904762 0.01331722701162409 97625.30554447493
0.1512323713144557 0.1500943961904762 0 97625.30554447493
0.1517775293894314 0.1495211222726202 0 97630.81890604096
0.1517775293894314 0.1495211222726202 0.0146 97630.81890604095
0.1650434782608695 0.1418689380250081 0 97639.4229760475
0.1608992097017332 0.145928492576 0.007299999999999997 97606.76782746454
0.1650434782608695 0.1418689380250081 0.005189848581142676 97639.4229760475
0.1650434782608695 0.1418689380250082 0.0146 97639.4229760475
0.1531461668309475 0.1492918877276393 0.0136819081444103 97620.03215467195
0.1531461668309475 0.1492918877276393 0.0009180918555896938 97620.03215467196
0.1596273389115482 0.1446499820146375 0 97659.90681312641
0.1596273389115482 0.1446499820146374 0.0146 97659.90681312638
0.1683782505939075 0.1406846480992699 0 97643.92938707255
0.1670308575211084 0.139330220993015 0.002285486149274726 97641.2549314424
0.1683782505939075 0.1406846480992699 0.0146 97643.92938707255
0.1670308575211084 0.1393302209930151 0.01231451385072528 97641.25493144243
0.1269565217391305 0.1619226545928005 0 97626.17439625706
0.1265138715341068 0.162411364664406 0.01409095226422279 97621.5387896037
0.1265138715341068 0.162411364664406 0.0005090477357772089 97621.53878960371
0.1269565217391305 0.1619226545928005 0.01353185443876238 97626.17439625705
0.1269565217391305 0.1619226545928005 0.0146 97626.17439625705
0.1248978731679938 0.1628563257142857 0.0146 97623.01866015531
0.1248978731679938 0.1628563257142857 0.01223255414319276 97623.01866015531
0.1248978731679938 0.1628563257142857 0 97623.01866015531
0.1261585052532452 0.1620541432023363 0 97628.85521806435
0.1261585052532452 0.1620541432023363 0.0146 97628.85521806433
0.1396521739130435 0.1563505023381056 0 97634.42233591632
0.1361994613884579 0.1593855883861729 0.007299999999999999 97609.3442494389
0.1396521739130435 0.1563505023381056 0.00715715829530171 97634.42233591632
0.1396521739130435 0.1563505023381056 0.0146 97634.42233591632
0.1278097104034225 0.1619986829988858 0.01361883303606418 97618.15127378424
0.1278097104034225 0.1619986829988858 0.0009811669639358217 97618.15127378424
0.1348603599836078 0.1580394962343223 0 97647.520876589
0.1348603599836078 0.1580394962343223 0.0146 97647.520876589
0.1442044560330905 0.1546704433909432 0 97641.06877974965
0.1430267620341703 0.153486601268542 0.007299999999999999 97630.47177728906
0.1442044560330905 0.1546704433909432 0.0146 97641.06877974965
0.08886956521739131 0.1748692476154705 0 97622.8092434783
0.08848583628024979 0.1752325230531737 0.01415871172228724 97619.09333655563
0.08848583628024979 0.1752325230531737 0.0004412882777127565 97619.09333655564
0.08886956521739131 0.1748692476154705 0.01374311458389431 97622.8092434783
0.0888695652173913 0.1748692476154705 0.0146 97622.8092434783
0.08606168725803362 0.1756182552380952 0.0146 97620.39427104597
0.08606168725803362 0.1756182552380952 0.01137094034673866 97620.39427104595
0.08606168725803362 0.1756182552380952 0 97620.39427104595
0.08819969928609647 0.1749448922876553 0 97623.94057900881
0.08819969928609647 0.1749448922876553 0.0146 97623.94057900881
0.1015652173913043 0.1712662189348549 0 97630.55072181489
0.09915777555884087 0.1731982454128655 0.01183144189266704 97612.30131853156
0.09915777555884087 0.1731982454128655 0.002768558107332959 97612.30131853154
0.1015652173913043 0.1712662189348549 0.009621150218016437 97630.5507218149
0.1015652173913043 0.1712662189348549 0.0146 97630.55072181489
0.08942579885098934 0.1750591178000566 0.01396033132136226 97617.70363057755
0.08942579885098934 0.1750591178000566 0.0006396686786377359 97617.70363057757
0.09795971017990537 0.1719939255621447 0 97636.17753907957
0.09795971017990537 0.1719939255621447 0.0146 97636.17753907955
0.1142608695652174 0.1672792003533813 0 97630.07005839812
0.1077872713983915 0.1696740955806554 0.00725178736938341 97605.86852542286
0.1142608695652174 0.1672792003533813 0.005059890795535336 97630.07005839812
0.1142608695652174 0.1672792003533812 0.0146 97630.07005839814
0.1079775060270249 0.1693020895501556 0 97638.84336974258
0.1079775060270249 0.1693020895501556 0.0146 97638.84336974259
0.117743554587453 0.1663571920107588 0 97632.75095676025
0.1166480646386538 0.165255983082765 0.002745274334451905 97628.96648297831
0.117743554587453 0.1663571920107588 0.0146 97632.75095676027
0.1166480646386538 0.1652559830827651 0.01185472566554809 97628.96648297834
0.01269565217391304 0.1855090183354326 0 97625.45412890767
0.01082683412729014 0.1865016105951651 0.01245085924638368 97611.9453776388
0.01082683412729015 0.1865016105951651 0.002149140753616324 97611.9453776388
0.01269565217391304 0.1855090183354326 0.01131530627494169 97625.45412890769
0.01269565217391304 0.1855090183354326 0.0146 97625.45412890769
0.001761938801773281 0.1866090478005678 0.01257377037796072 97612.16595166817
0.001761938801773283 0.1866090478005678 0.00202622962203928 97612.16595166815
0 0.1857207436576067 0.0146 97625.00591805093
0 0.1857207436576067 0.01155752589368939 97625.00591805093
0 0.1857207436576067 0 97625.00591805093
0.009873143938262536 0.1855429416892126 0 97625.62125100064
0.009873143938262536 0.1855429416892126 0.0146 97625.62125100062
0.02539130434782608 0.1848979005762239 0 97626.37941837905
0.02310176598463648 0.1860786939182029 0.01196703088233196 97610.85433365668
0.02310176598463647 0.186078693918203 0.002632969117668047 97610.85433365668
0.02539130434782608 0.1848979005762239 0.01061617067261753 97626.37941837905
0.02539130434782608 0.1848979005762239 0.0146 97626.37941837905
0.01468923637402721 0.1863761931029402 0.0123073781698687 97611.50975650422
0.01468923637402721 0.1863761931029402 0.002292621830131293 97611.50975650422
0.02204654596837724 0.1850179651509732 0 97627.08392773727
0.02204654596837726 0.1850179651509731 0.0146 97627.08392773727
0.03808695652173913 0.18388002923735 0 97627.63317005531
0.03504186799109572 0.1853191994190893 0.01109814818976008 97608.98718823754
0.03504186799109572 0.1853191994190893 0.00350185181023992 97608.98718823754
0.03808695652173913 0.18388002923735 0.009451697736151839 97627.63317005531
0.03808695652173913 0.18388002923735 0.0146 97627.63317005531
0.02801266861486781 0.1857451357251204 0.01158543109290201 97609.67882545669
0.02801266861486782 0.1857451357251204 0.003014568907097998 97609.67882545669
0.0339013404208834 0.1841727177518521 0 97628.96624572089
0.0339013404208834 0.1841727177518521 0.0146 97628.96624572089
0.05078260869565217 0.1824112796482729 0 97628.90113464213
0.04423552521852489 0.1840981073495772 0.007223618000434545 97607.60886489846
0.05078260869565217 0.1824112796482729 0.007771407623240681 97628.9011346421
0.05078260869565217 0.1824112796482729 0.0146 97628.9011346421
0.04544947830677894 0.1830192128928157 0 97630.90981822347
0.04544947830677894 0.1830192128928158 0.0146 97630.90981822344
0.06347826086956521 0.1805108881649853 0 97628.60081586169
0.06347826086956521 0.1805108881649853 0.00559730725665938 97628.60081586169
0.05725158572171347 0.1811756834365513 0.007346441193323495 97611.83442889068
0.06347826086956521 0.1805108881649853 0.0146 97628.60081586169
0.05670746540165077 0.1815740425174595 0 97631.82101257262
0.05670746540165077 0.1815740425174595 0.0146 97631.82101257259
0.07617391304347826 0.1781215446675253 0 97625.26651529717
0.07617391304347826 0.1781215446675253 0.002863832275636165 97625.26651529717
0.07403816295277477 0.177765154961296 0.002456112604308999 97621.98926933845
0.07403816295277477 0.177765154961296 0.012143887395691 97621.98926933843
0.07617391304347826 0.1781215446675253 0.0146 97625.26651529719
0.06770871429734061 0.1798707936472652 0 97630.34756167477
0.06671203096213207 0.1788689071504358 0.007299999999999999 97624.04267484936
0.06770871429734061 0.1798707936472652 0.0146 97630.34756167477
0.07834838855669711 0.1778040825489576 0 97625.82324079913
0.07756218063427464 0.1770137702467953 0.001596507729415837 97624.72602396795
0.07834838855669711 0.1778040825489576 0.0146 97625.82324079916
0.07756218063427464 0.1770137702467953 0.01300349227058416 97624.72602396797
0.30999961 0.05703523852030572 0 97572.29184143928
0.3078948471783912 0.05247586279851153 0.007299999999999999 97540.98023799443
0.30999961 0.05703523852030572 0.0103377523085617 97572.29184143926
0.30999961 0.05703523852030572 0.0146 97572.29184143926
0.3075257508702728 0.04799895999999999 0 97456.1619367738
0.3075257508702727 0.04799895999999999 0.008580145687486862 97456.1619367738
0.3075257508702727 0.04799895999999999 0.0146 97456.1619367738
0.3104354952169519 0.05983374669917996 0.0135393229907486 97573.40856858203
0.3114743619382147 0.06076088952380952 0.0146 97571.39765565121
0.3104354952169519 0.05983374669917997 0.001060677009251405 97573.40856858205
0.3114743619382147 0.06076088952380952 0.00358864080353987 97571.39765565121
0.3114743619382147 0.06076088952380952 0 97571.39765565121
0.3159994799999999 0.06900768810680241 0 97562.57708886566
0.314586102821595 0.06376719131724262 0.003439292318785761 97546.05387736404
0.3159994799999999 0.06900768810680243 0.00943456544616266 97562.57708886566
0.314586102821595 0.06376719131724262 0.01116070768121424 97546.05387736404
0.3159994799999999 0.06900768810680243 0.0146 97562.57708886564
0.2929173939656142 0.1098572791511412 0.01236762631557546 97587.81328265739
0.2929173939656142 0.1098572791511412 0.002232373684424541 97587.81328265739
0.2967910128690933 0.1118086076190476 0.0146 97585.92062994663
0.2967910128690933 0.1118086076190476 0.01165838391311198 97585.92062994663
0.2967910128690933 0.1118086076190476 0 97585.92062994663
0.2979998699999999 0.1128429490084606 0 97585.37071735971
0.2979998699999999 0.1128429490084606 0.001183315129366279 97585.37071735969
0.2977565596186041 0.112326137155485 0.0005920680895384088 97585.35336483651
0.2977565596186041 0.112326137155485 0.01400793191046159 97585.35336483651
0.2979998699999999 0.1128429490084606 0.0146 97585.37071735969
0.30399974 0.1174427976963416 0 97584.54155491499
0.30399974 0.1174427976963416 0.006445669126680575 97584.54155491496
0.3026368823211419 0.1147074527021194 0.003316358872997074 97586.22842213376
0.3026368823211419 0.1147074527021194 0.01128364112700293 97586.22842213378
0.30399974 0.1174427976963416 0.0146 97584.54155491496
0.2987059222855151 0.1133104050759708 0 97585.6230452889
0.2983693570544785 0.1125945192720027 0.0008991046464986355 97586.07364951281
0.2983693570544785 0.1125945192720027 0.01370089535350136 97586.07364951279
0.2987059222855151 0.1133104050759708 0.0146 97585.62304528888
0.305969395197582 0.1203810129002074 0.007299999999999998 97590.78896480496
0.3095263438456799 0.1245705371428571 0.0146 97579.99691203932
0.3095263438456799 0.1245705371428571 0.01344836073897043 97579.99691203934
0.3095263438456799 0.1245705371428571 0 97579.99691203932
0.30999961 0.1253107697229713 0 97579.50059438078
0.30999961 0.1253107697229713 0.0008468465250105266 97579.50059438076
0.3098618686780454 0.1248635176646518 0.0003351778122753464 97579.55943518016
0.3098618686780454 0.1248635176646518 0.01426482218772466 97579.55943518017
0.30999961 0.1253107697229713 0.0146 97579.50059438078
0.3153276704146319 0.1373324666666667 0.0146 97565.58359218814
0.3145799912867742 0.1343131654288014 0.01114583595759627 97569.98654544126
0.3153276704146319 0.1373324666666667 0.01296522792220929 97565.58359218815
0.3145799912867742 0.1343131654288014 0.003454164042403731 97569.98654544124
0.3153276704146319 0.1373324666666667 0 97565.58359218814
0.313403464030596 0.1300923522562207 0.007300000000000004 97573.71259096272
0.3109142425040418 0.126515991887171 0.002225653982337906 97578.69018730443
0.3109142425040418 0.126515991887171 0.0123743460176621 97578.69018730441
0.31599948 0.14100192216639 0 97566.82161283273
0.31599948 0.14100192216639 0.004197958482375964 97566.82161283275
0.3157323765265795 0.1379006049268886 0.0006499658679170835 97565.34786869657
0.3157323765265795 0.1379006049268886 0.01395003413208291 97565.34786869657
0.31599948 0.14100192216639 0.0146 97566.82161283273
0.3178790127466007 0.07182228941974211 0.01265454711838966 97566.39926002821
0.3203007323396079 0.07352281904761905 0.0146 97566.1295588793
0.3178790127466007 0.0718222894197421 0.001945452881610341 97566.39926002825
0.3203007323396078 0.07352281904761904 0.004452108522055229 97566.1295588793
0.3203007323396079 0.07352281904761904 0 97566.12955887931
0.3269696579761183 0.08344821816886891 0.003245069156674694 97558.96087198899
0.3244361605966773 0.07865156136491089 0.007299999999999996 97556.8364386747
0.3269696579761183 0.08344821816886895 0.01135493084332535 97558.96087198899
0.3281540549443457 0.08628474857142855 0.0146 97564.37867623876
0.3281540549443457 0.08628474857142855 0.01258086771459064 97564.37867623875
0.3281540549443457 0.08628474857142855 0 97564.37867623876
0.3257584263644535 0.08235234194879128 0 97563.60236440186
0.3257584263644535 0.08235234194879135 0.0146 97563.60236440186
0.3301047705263158 0.09029074422235897 0 97561.6971893055
0.3292609557282664 0.08704820005537799 0.000873409592559349 97560.70461695034
0.3301047705263158 0.09029074422235897 0.004582969714294815 97561.6971893055
0.3292609557282664 0.08704820005537796 0.01372659040744067 97560.70461695036
0.3301047705263157 0.09029074422235889 0.0146 97561.6971893055
0.332271547870601 0.09708626049802772 0.01235722810051003 97564.85787374522
0.3340900033142812 0.09904667809523812 0.0146 97563.98791600209
0.332271547870601 0.09708626049802774 0.00224277189948998 97564.85787374522
0.3340900033142812 0.09904667809523809 0.004125005337234401 97563.98791600208
0.3340900033142812 0.09904667809523809 0 97563.98791600208
0.3346835537004568 0.1050195998900103 0.007144395856989578 97568.60407251409
0.3370477628195143 0.1118086076190476 0.0146 97561.65327665149
0.3370477628195143 0.1118086076190476 0.007186501213256096 97561.65327665149
0.3370477628195143 0.1118086076190476 0 97561.65327665149
0.3351110851838212 0.1035762008806001 0 97563.40960202942
0.3351110851838212 0.1035762008806001 0.0146 97563.40960202944
0.3394181992306814 0.1187281791798009 0.007505393686707485 97560.97541162325
0.3407517686890665 0.1245705371428571 0.0146 97559.109129915
0.3407517686890665 0.1245705371428571 0.01102041626765151 97559.109129915
0.3407517686890666 0.1245705371428571 0 97559.109129915
0.3397093173413166 0.1204984356897626 0 97560.02959833418
0.3397093173413166 0.1204984356897626 0.0146 97560.02959833418
0.3442100610526316 0.1335666109404803 0 97562.6695366483
0.3424142058442145 0.1261953585219011 0.001858840553051547 97558.06339888345
0.3442100610526316 0.1335666109404803 0.01029175699491655 97562.6695366483
0.3424142058442145 0.1261953585219011 0.01274115944694845 97558.06339888345
0.3442100610526316 0.1335666109404803 0.0146 97562.66953664829
0.3449962415523818 0.1366211605002259 0.01378624609149741 97564.13393378897
0.3457500807218428 0.1373324666666666 0.0146 97563.97165881535
0.3449962415523818 0.1366211605002259 0.0008137539085025914 97564.13393378898
0.3457500807218428 0.1373324666666666 0.001594032191576245 97563.97165881538
0.3457500807218428 0.1373324666666666 0 97563.97165881537
0.3177424210277487 0.1485174495463226 0.01279592946648952 97569.96944065973
0.3177424210277487 0.1485174495463226 0.00180407053351048 97569.96944065974
0.3193816651414484 0.1500943961904762 0.0146 97571.76380615326
0.3193816651414484 0.1500943961904762 0.003500807230664297 97571.76380615323
0.3193816651414484 0.1500943961904762 0 97571.76380615323
0.3469539893745158 0.1476117943754381 0.01175983492684757 97574.64569223484
0.3477403069008083 0.1500943961904762 0.0146 97574.11445250586
0.3469539893745158 0.1476117943754381 0.002840165073152426 97574.64569223484
0.3477403069008083 0.1500943961904762 0.003654060814076942 97574.11445250586
0.3477403069008083 0.1500943961904762 0 97574.11445250586
0.345664124653316 0.1386480480196668 0.00150506141864902 97565.37410538284
0.3459003128496013 0.1388617421020202 0 97564.1113149634
0.3459003128496013 0.1388617421020202 0.0146 97564.1113149634
0.345664124653316 0.1386480480196668 0.01309493858135098 97565.37410538284
0.3190530928227501 0.160093533160369 0.01143928897962261 97577.58895797683
0.3190530928227501 0.160093533160369 0.003160711020377388 97577.58895797683
0.3243260251344636 0.1628563257142857 0.0146 97580.82818404706
0.3243260251344636 0.1628563257142857 0.008618578875519376 97580.82818404706
0.3243260251344636 0.1628563257142857 0 97580.82818404704
0.3181069735968836 0.152001176111466 0.002181408915831519 97575.0368997097
0.3222866984872793 0.1557828319646813 0 97578.01748983026
0.3181069735968836 0.152001176111466 0.01241859108416848 97575.03689970971
0.3222866984872793 0.1557828319646813 0.0146 97578.01748983026
0.3442100610526315 0.1576925812490716 0 97580.52056195962
0.343161735709984 0.1619078408804618 0.01351490714252934 97585.66206601179
0.343161735709984 0.1619078408804618 0.001085092857470666 97585.66206601176
0.3442100610526315 0.1576925812490716 0.008692533652417379 97580.52056195965
0.3442100610526315 0.1576925812490716 0.0146 97580.52056195965
0.3393139704192073 0.1628563257142857 0.0146 97585.52199416733
0.3393139704192073 0.1628563257142857 0.009532190647570792 97585.52199416733
0.3393139704192073 0.1628563257142857 0 97585.5219941673
0.3417763217880362 0.1606543711415566 0 97583.02854416842
0.3417763217880362 0.1606543711415566 0.0146 97583.02854416847
0.3472885257840199 0.1528796738045896 0 97574.10661821919
0.3466231188124478 0.1522776389255481 0.002497690014082922 97574.62063421644
0.3472885257840199 0.1528796738045896 0.0146 97574.10661821917
0.3466231188124478 0.1522776389255481 0.01210230998591708 97574.62063421645
0.3301047705263158 0.1672797245340603 0 97583.37165260292
0.3301047705263158 0.1672797245340603 0.005060490472715774 97583.37165260292
0.3247932644356359 0.1676619740820436 0.007299999999999997 97576.76795649975
0.3301047705263158 0.1672797245340603 0.0146 97583.37165260295
0.3340479170809931 0.1664239345018509 0 97584.5868276259
0.3345009899817943 0.1668338576025759 0.007299999999999999 97594.24832765164
0.3340479170809931 0.1664239345018509 0.0146 97584.5868276259
