# U  POINT_DATA 372
# x y z  U_x U_y U_z
0.2539130434782608 0.09824032072371842 0 1.681060388703183 0.3481434239446169 -2.09348676622361e-20
0.2534753255310743 0.0986066750519301 0.01409662436073548 1.680904668705387 0.3299052650377997 -2.132887049112391e-20
0.2534753255310743 0.09860667505193012 0.0005033756392645307 1.680904668705387 0.3299052650377993 -2.132887049112392e-20
0.2539130434782608 0.0982403207237184 0.01367750488652808 1.681060388703183 0.3481434239446168 -2.093486766223611e-20
0.2539130434782608 0.09824032072371838 0.0146 1.681060388703183 0.3481434239446168 -2.09348676622361e-20
0.2446843317546804 0.09904667809523809 0.0146 1.630593721983399 0.08856321929414715 -1.470130170501793e-20
0.2446843317546804 0.09904667809523809 0.003986981517882371 1.630593721983399 0.08856321929414787 -1.470130170501794e-20
0.2446843317546803 0.09904667809523811 0 1.630593721983399 0.08856321929414557 -1.470130170501788e-20
0.2531524796091386 0.09828214372054574 0 1.677900713346985 0.3306506613191164 -2.054199208512673e-20
0.2531524796091386 0.09828214372054572 0.0146 1.677900713346985 0.3306506613191161 -2.054199208512674e-20
0.2666086956521739 0.09899571426369184 0 1.687612752658325 0.685625493001593 -9.14881196663273e-21
0.2665766279546723 0.09901444298908527 0.01456312214787322 1.687590489142975 0.6845012821474227 -9.207286784466036e-21
0.2665766279546724 0.09901444298908527 3.687785212677715e-05 1.687590489142975 0.6845012821474243 -9.207286784465962e-21
0.2666086956521739 0.09899571426369184 0.01454169596852989 1.687612752658326 0.685625493001593 -9.148811966632733e-21
0.2666086956521739 0.09899571426369184 0.0146 1.687612752658325 0.6856254930015931 -9.148811966632731e-21
0.2544079438009312 0.09854919415721655 0.01403086462892909 1.682025860112587 0.3562592263283378 -2.117184454109315e-20
0.2544079438009312 0.09854919415721658 0.0005691353710709225 1.682025860112586 0.3562592263283378 -2.117184454109316e-20
0.2665574856939951 0.09899520079669191 0 1.687534548225158 0.684319054769351 -9.179915385459316e-21
0.2665574856939951 0.09899520079669193 0.0146 1.687534548225158 0.6843190547693508 -9.179915385459323e-21
0.266635610720498 0.09901962251744069 0.01456904767142733 1.687599742972993 0.686206450926602 -9.118900689285218e-21
0.266635610720498 0.0990196225174407 3.095232857267113e-05 1.687599742972993 0.686206450926602 -9.118900689285227e-21
0.266776694127546 0.09904667809523809 0.0146 1.687560312778387 0.6897654110012263 -9.036547865490096e-21
0.266776694127546 0.09904667809523809 0.0001931982466778473 1.687560312778387 0.6897654110012262 -9.036547865490087e-21
0.266776694127546 0.09904667809523809 0 1.687560312778387 0.6897654110012263 -9.036547865490095e-21
0.2158260869565218 0.1086774984153655 0 1.303047838410284 -0.6014925781335805 4.572263138119446e-22
0.2143245324865154 0.1102992143196818 0.01287321235949267 1.281730061107884 -0.6376731684097536 1.629334059090213e-36
0.2143245324865154 0.1102992143196818 0.001726787640507333 1.281730061107884 -0.637673168409754 0
0.2158260869565218 0.1086774984153655 0.01101792455533696 1.303047838410284 -0.6014925781335806 4.572263138119446e-22
0.2158260869565218 0.1086774984153655 0.0146 1.303047838410284 -0.6014925781335805 4.572263138119446e-22
0.2103264782085473 0.1118086076190476 0.0146 1.234240000547986 -0.6836733042058415 0
0.2103264782085473 0.1118086076190476 0.008275449939829375 1.234240000547986 -0.6836733042058415 0
0.2103264782085473 0.1118086076190476 0 1.234240000547987 -0.6836733042058414 0
0.213306072052994 0.1092754370377162 0 1.273758998215131 -0.6291988889824385 1.726221090665297e-22
0.213306072052994 0.1092754370377162 0.0146 1.273758998215131 -0.6291988889824384 1.726221090665305e-22
0.2285217391304348 0.1032942356309511 0 1.466355629638129 -0.3199816856066467 6.323624267298967e-21
0.2215553141568189 0.1071537098033467 0.007062870426780588 1.373395934524491 -0.5258457763235189 1.471563199667993e-21
0.2285217391304348 0.1032942356309511 0.004859323185080403 1.466355629638129 -0.3199816856066466 6.323624267298982e-21
0.2285217391304348 0.1032942356309511 0.0146 1.46635562963813 -0.3199816856066467 6.323624267298971e-21
0.2224924326564711 0.1057478252941916 0 1.396548094783576 -0.4116892354974887 9.815318460114568e-21
0.2224924326564711 0.1057478252941916 0.0146 1.396548094783576 -0.4116892354974881 9.815318460114604e-21
0.2412173913043479 0.09935219250408647 0 1.610610422894002 -0.006901668946439208 -1.159831332614817e-20
0.2412173913043479 0.09935219250408647 0.0003495169253884631 1.610610422894002 -0.006901668946439208 -1.159831332614817e-20
0.2410277663514601 0.09923729298067757 0.0002180686958209766 1.607848606182398 -0.01463451250975592 -1.18360418309099e-20
0.2410277663514601 0.09923729298067759 0.01438193130417903 1.607848606182398 -0.01463451250975495 -1.183604183090989e-20
0.2412173913043479 0.09935219250408647 0.0146 1.610610422894002 -0.006901668946439152 -1.159831332614817e-20
0.231863878281097 0.1024062648037616 0 1.515612140223507 -0.2121854433018702 4.142430348736069e-21
0.2304875028606208 0.1010227040481736 0.002260628289713865 1.492967604694252 -0.2794131999550923 6.861331936071635e-22
0.2304875028606208 0.1010227040481736 0.01233937171028613 1.492967604694252 -0.2794131999550925 6.861331936071513e-22
0.231863878281097 0.1024062648037616 0.0146 1.515612140223507 -0.2121854433018703 4.142430348736061e-21
0.2415117543934641 0.09934257789985236 0 1.612791551700655 0.0009925058094124792 -1.211398128792384e-20
0.2413715942193525 0.09920168602288902 0.0001773333522553255 1.612989786818027 -0.002320717479090772 -1.258113663719045e-20
0.2415117543934641 0.09934257789985236 0.0146 1.612791551700655 0.0009925058094124495 -1.211398128792384e-20
0.2413715942193525 0.09920168602288901 0.01442266664774468 1.612989786818027 -0.002320717479090924 -1.258113663719048e-20
0.279304347826087 0.1025683684729063 0 1.679560674914905 1.010753513909977 0
0.279304347826087 0.1025683684729063 0.004028911099848214 1.679560674914905 1.010753513909977 0
0.2775718884947522 0.100788181689263 0.001992328231034956 1.684232552827591 0.9653846736464297 0
0.2775718884947522 0.100788181689263 0.01260767176896504 1.684232552827591 0.9653846736464297 0
0.279304347826087 0.1025683684729063 0.0146 1.679560674914905 1.010753513909977 0
0.292 0.1078744140699417 0 1.661476960054764 1.203055958167326 0
0.292 0.1078744140699417 0.0100991738741557 1.661476960054764 1.203055958167326 0
0.2852771966565092 0.1044112287567164 0.007156258718328539 1.673725017704114 1.150048200711022 0
0.292 0.1078744140699417 0.0146 1.661476960054764 1.203055958167326 0
0.2852990332467696 0.1050726586284288 0 1.66873234614283 1.09658729212385 0
0.2852990332467696 0.1050726586284288 0.0146 1.66873234614283 1.09658729212385 0
0.1904347826086956 0.1243950114265729 0 0.9592934402587638 -0.9326636861948512 2.602181890109633e-21
0.190360668007446 0.1244960356280963 0.01451476820856295 0.9578785600278836 -0.9339913328749846 2.607665335280002e-21
0.190360668007446 0.1244960356280963 8.523179143704574e-05 0.9578785600278835 -0.9339913328749846 2.60766533528e-21
0.1904347826086956 0.1243950114265729 0.0143991937306214 0.9592934402587638 -0.9326636861948511 2.602181890109634e-21
0.1904347826086956 0.1243950114265729 0.0146 0.9592934402587638 -0.9326636861948512 2.602181890109643e-21
0.1902019671615003 0.1245705371428571 0.0146 0.9560026728399109 -0.9346664381134457 2.723070383168282e-21
0.1902019671615003 0.1245705371428571 0.01433226223572539 0.9560026728399109 -0.9346664381134457 2.723070383168282e-21
0.1902019671615003 0.1245705371428571 0 0.9560026728399109 -0.9346664381134457 2.72307038316828e-21
0.1902916710646279 0.124426678488381 0 0.9576821312693972 -0.9331300107751165 2.608728911483664e-21
0.1902916710646279 0.124426678488381 0.0146 0.9576821312693974 -0.9331300107751165 2.60872891148366e-21
0.2031304347826087 0.115944029442302 0 1.149564588447253 -0.7706921977171501 0
0.1987210082643303 0.1201380913184263 0.007299999999999999 1.077229130890373 -0.852321549766608 0
0.2031304347826087 0.115944029442302 0.004731036831606933 1.149564588447254 -0.7706921977171497 0
0.2031304347826087 0.115944029442302 0.0146 1.149564588447253 -0.7706921977171503 0
0.1906816477118999 0.1243223832862592 0.01431610513131505 0.9622854917746604 -0.9316232869796103 2.535861667447041e-21
0.1906816477118999 0.1243223832862593 0.0002838948686849435 0.9622854917746599 -0.9316232869796105 2.535861667447048e-21
0.1975511768269591 0.1189621528038896 0 1.077678435151291 -0.8192968757760497 5.272724328542624e-36
0.1975511768269591 0.1189621528038896 0.0146 1.07767843515129 -0.8192968757760495 5.565653457906107e-36
0.206198222831403 0.114892410982308 0 1.182098336056234 -0.7284586736770735 0
0.204857212917504 0.1135444003580824 0.001985794855129645 1.176180050295041 -0.7468090815729325 0
0.206198222831403 0.114892410982308 0.0146 1.182098336056233 -0.7284586736770737 0
0.2048572129175041 0.1135444003580824 0.01261420514487035 1.176180050295041 -0.7468090815729321 0
0.1777391304347826 0.1329332594168413 0 0.7923730271011493 -1.013592553476495 8.714812576100102e-21
0.1758279830943474 0.1354113422270443 0.01240218055849955 0.7590561328551001 -1.033620714066363 1.218466551791424e-20
0.1758279830943474 0.1354113422270442 0.002197819441500444 0.7590561328551004 -1.033620714066363 1.218466551791422e-20
0.1777391304347826 0.1329332594168414 0.009567185351743224 0.7923730271011493 -1.013592553476495 8.714812576100082e-21
0.1777391304347826 0.1329332594168414 0.0146 0.7923730271011494 -1.013592553476495 8.714812576100082e-21
0.1715351446168752 0.1373324666666667 0.0146 0.7178975300441929 -1.032214219397111 1.098760630137887e-20
0.1715351446168752 0.1373324666666667 0.007465416309406555 0.7178975300441932 -1.03221421939711 1.098760630137886e-20
0.1715351446168752 0.1373324666666666 0 0.7178975300441934 -1.032214219397111 1.098760630137887e-20
0.1745198515739773 0.134096381637218 0 0.7581304168552928 -1.014387707306964 8.911222071738551e-21
0.1745198515739773 0.1340963816372181 0.0146 0.7581304168552923 -1.014387707306964 8.911222071738528e-21
0.183122702036542 0.1299822135519832 0 0.8610819700781255 -0.9742138963056712 4.60538408963487e-21
0.1820866354597733 0.1289407382143187 0.007300000000000003 0.8555380929209624 -0.9921338777382026 9.513320436711527e-21
0.183122702036542 0.1299822135519832 0.0146 0.8610819700781255 -0.9742138963056712 4.605384089634872e-21
0.1523478260869565 0.1494072053794382 0 0.5386517091895652 -1.0191214450465 1.617048956275863e-21
0.1520442213146723 0.149789206456707 0.01425085451187319 0.5349074537632102 -1.01963001153595 1.405861290537345e-21
0.1520442213146723 0.149789206456707 0.0003491454881268082 0.5349074537632104 -1.01963001153595 1.40586129053735e-21
0.1523478260869565 0.1494072053794382 0.01381383472440926 0.5386517091895652 -1.0191214450465 1.617048956275863e-21
0.1523478260869565 0.1494072053794382 0.0146 0.5386517091895652 -1.0191214450465 1.617048956275863e-21
0.1512323713144557 0.1500943961904762 0.0146 0.5295516378318588 -1.015681383323075 1.176407990686107e-21
0.1512323713144557 0.1500943961904762 0.01331722701162409 0.5295516378318588 -1.015681383323075 1.176407990686107e-21
0.1512323713144557 0.1500943961904762 0 0.5295516378318588 -1.015681383323075 1.176407990686107e-21
0.1517775293894314 0.1495211222726202 0 0.5348432070588623 -1.016061430892429 1.217963134518196e-21
0.1517775293894314 0.1495211222726202 0.0146 0.5348432070588625 -1.016061430892429 1.217963134518195e-21
0.1650434782608695 0.1418689380250081 0 0.6505944745807365 -1.043632561714251 9.992609122436607e-21
0.1608992097017332 0.145928492576 0.007299999999999997 0.5987187403079651 -1.056364592135563 5.708292006858143e-21
0.1650434782608695 0.1418689380250081 0.005189848581142676 0.6505944745807364 -1.043632561714251 9.992609122436605e-21
0.1650434782608695 0.1418689380250082 0.0146 0.6505944745807366 -1.043632561714251 9.992609122436611e-21
0.1531461668309475 0.1492918877276393 0.0136819081444103 0.5429161879029338 -1.024770719667653 2.033550953997308e-21
0.1531461668309475 0.1492918877276393 0.0009180918555896938 0.5429161879029338 -1.024770719667653 2.033550953997308e-21
0.1596273389115482 0.1446499820146375 0 0.6013025880064129 -1.032198762453074 4.803530014775013e-21
0.1596273389115482 0.1446499820146374 0.0146 0.6013025880064131 -1.032198762453073 4.803530014775024e-21
0.1683782505939075 0.1406846480992699 0 0.6853753113604406 -1.047407836169772 9.847663029929832e-21
0.1670308575211084 0.139330220993015 0.002285486149274726 0.6748471093873863 -1.036252793147149 1.346216598782734e-20
0.1683782505939075 0.1406846480992699 0.0146 0.6853753113604408 -1.047407836169773 9.847663029929839e-21
0.1670308575211084 0.1393302209930151 0.01231451385072528 0.6748471093873866 -1.036252793147149 1.346216598782734e-20
0.1269565217391305 0.1619226545928005 0 0.379849663208498 -0.9101418085749245 -2.833165397829505e-22
0.1265138715341068 0.162411364664406 0.01409095226422279 0.3763849863961219 -0.9099885345435101 2.902073098089687e-36
0.1265138715341068 0.162411364664406 0.0005090477357772089 0.376384986396122 -0.90998853454351 0
0.1269565217391305 0.1619226545928005 0.01353185443876238 0.379849663208498 -0.9101418085749247 -2.833165397829505e-22
0.1269565217391305 0.1619226545928005 0.0146 0.379849663208498 -0.9101418085749247 -2.833165397829508e-22
0.1248978731679938 0.1628563257142857 0.0146 0.3692557453350829 -0.9038448642093507 0
0.1248978731679938 0.1628563257142857 0.01223255414319276 0.3692557453350828 -0.9038448642093505 0
0.1248978731679938 0.1628563257142857 0 0.3692557453350828 -0.9038448642093506 0
0.1261585052532452 0.1620541432023363 0 0.376273014776518 -0.9068199682337355 -1.215489760629291e-22
0.1261585052532452 0.1620541432023363 0.0146 0.3762730147765179 -0.9068199682337357 -1.215489760629252e-22
0.1396521739130435 0.1563505023381056 0 0.4477088486775217 -0.9638760122721012 -9.883696959136607e-22
0.1361994613884579 0.1593855883861729 0.007299999999999999 0.4199500918764493 -0.9549228440822015 1.722002236996717e-36
0.1396521739130435 0.1563505023381056 0.00715715829530171 0.4477088486775217 -0.9638760122721011 -9.883696959136607e-22
0.1396521739130435 0.1563505023381056 0.0146 0.4477088486775217 -0.9638760122721011 -9.883696959136613e-22
0.1278097104034225 0.1619986829988858 0.01361883303606418 0.382350290290352 -0.915711440230385 0
0.1278097104034225 0.1619986829988858 0.0009811669639358217 0.3823502902903521 -0.9157114402303848 -5.804146196179374e-36
0.1348603599836078 0.1580394962343223 0 0.4207743876307891 -0.9405023633919117 -1.461636147444381e-21
0.1348603599836078 0.1580394962343223 0.0146 0.4207743876307892 -0.9405023633919117 -1.461636147444381e-21
0.1442044560330905 0.1546704433909432 0 0.4771920458586096 -0.9896715541589305 -1.243605544584807e-21
0.1430267620341703 0.153486601268542 0.007299999999999999 0.4699774359698214 -0.9807162871414656 -9.081093442193569e-22
0.1442044560330905 0.1546704433909432 0.0146 0.4771920458586096 -0.9896715541589305 -1.243605544584807e-21
0.08886956521739131 0.1748692476154705 0 0.2293708961799063 -0.7961821108404264 0
0.08848583628024979 0.1752325230531737 0.01415871172228724 0.2275708833167594 -0.7963253134540611 0
0.08848583628024979 0.1752325230531737 0.0004412882777127565 0.2275708833167593 -0.7963253134540611 0
0.08886956521739131 0.1748692476154705 0.01374311458389431 0.2293708961799063 -0.7961821108404264 0
0.0888695652173913 0.1748692476154705 0.0146 0.2293708961799063 -0.7961821108404263 0
0.08606168725803362 0.1756182552380952 0.0146 0.2203246827387937 -0.7911584986342536 0
0.08606168725803362 0.1756182552380952 0.01137094034673866 0.2203246827387936 -0.7911584986342535 0
0.08606168725803362 0.1756182552380952 0 0.2203246827387936 -0.7911584986342535 0
0.08819969928609647 0.1749448922876553 0 0.2272688242928614 -0.7946602933076214 0
0.08819969928609647 0.1749448922876553 0.0146 0.2272688242928614 -0.7946602933076216 0
0.1015652173913043 0.1712662189348549 0 0.2767590412673239 -0.8229549578162827 0
0.09915777555884087 0.1731982454128655 0.01183144189266704 0.2645933870419341 -0.8215690344632037 0
0.09915777555884087 0.1731982454128655 0.002768558107332959 0.2645933870419341 -0.8215690344632036 0
0.1015652173913043 0.1712662189348549 0.009621150218016437 0.276759041267324 -0.8229549578162828 0
0.1015652173913043 0.1712662189348549 0.0146 0.2767590412673238 -0.8229549578162829 0
0.08942579885098934 0.1750591178000566 0.01396033132136226 0.2304369517631387 -0.7986692704111913 0
0.08942579885098934 0.1750591178000566 0.0006396686786377359 0.2304369517631387 -0.7986692704111915 0
0.09795971017990537 0.1719939255621447 0 0.2646765316531209 -0.8130482413666617 0
0.09795971017990537 0.1719939255621447 0.0146 0.2646765316531209 -0.8130482413666615 0
0.1142608695652174 0.1672792003533813 0 0.3271347897171292 -0.8650521358490448 0
0.1077872713983915 0.1696740955806554 0.00725178736938341 0.2917452921601946 -0.8472522106264453 0
0.1142608695652174 0.1672792003533813 0.005059890795535336 0.3271347897171293 -0.8650521358490451 0
0.1142608695652174 0.1672792003533812 0.0146 0.3271347897171294 -0.8650521358490451 0
0.1079775060270249 0.1693020895501556 0 0.3058828296491486 -0.8455539454905934 0
0.1079775060270249 0.1693020895501556 0.0146 0.3058828296491486 -0.8455539454905936 0
0.117743554587453 0.1663571920107588 0 0.3441311553265136 -0.8834046920154456 0
0.1166480646386538 0.165255983082765 0.002745274334451905 0.3303847070955499 -0.8710022324308829 0
0.117743554587453 0.1663571920107588 0.0146 0.3441311553265136 -0.8834046920154455 0
0.1166480646386538 0.1652559830827651 0.01185472566554809 0.33038470709555 -0.8710022324308834 0
0.01269565217391304 0.1855090183354326 0 0.03129731146680099 -0.7098458109163926 -9.697383030829909e-22
0.01082683412729014 0.1865016105951651 0.01245085924638368 0.02670539211871669 -0.7124943270953292 -7.804520275926803e-22
0.01082683412729015 0.1865016105951651 0.002149140753616324 0.02670539211871669 -0.7124943270953291 -7.804520275926791e-22
0.01269565217391304 0.1855090183354326 0.01131530627494169 0.03129731146680099 -0.7098458109163926 -9.697383030829911e-22
0.01269565217391304 0.1855090183354326 0.0146 0.03129731146680099 -0.7098458109163928 -9.697383030829909e-22
0.001761938801773281 0.1866090478005678 0.01257377037796072 0.004573022587483293 -0.1952781313629686 -2.942743299048443e-53
0.001761938801773283 0.1866090478005678 0.00202622962203928 0.004573022587483297 -0.1952781313629683 -8.59602481959466e-37
0 0.1857207436576067 0.0146 0 0 0
0 0.1857207436576067 0.01155752589368939 0 0 0
0 0.1857207436576067 0 0 0 0
0.009873143938262536 0.1855429416892126 0 0.02408761733568303 -0.5569979814904095 -8.601809972144423e-22
0.009873143938262536 0.1855429416892126 0.0146 0.02408761733568303 -0.5569979814904095 -8.601809972144416e-22
0.02539130434782608 0.1848979005762239 0 0.06118232496884631 -0.7144701905175334 -2.415513212202548e-21
0.02310176598463648 0.1860786939182029 0.01196703088233196 0.05507993751732766 -0.7169698168027783 -2.605650450044018e-21
0.02310176598463647 0.186078693918203 0.002632969117668047 0.05507993751732763 -0.7169698168027785 -2.605650450044019e-21
0.02539130434782608 0.1848979005762239 0.01061617067261753 0.06118232496884628 -0.7144701905175332 -2.415513212202554e-21
0.02539130434782608 0.1848979005762239 0.0146 0.06118232496884628 -0.7144701905175332 -2.415513212202549e-21
0.01468923637402721 0.1863761931029402 0.0123073781698687 0.03564914255604948 -0.7136835747217311 -1.386871966665671e-21
0.01468923637402721 0.1863761931029402 0.002292621830131293 0.03564914255604948 -0.7136835747217312 -1.386871966665671e-21
0.02204654596837724 0.1850179651509732 0 0.05293873093796933 -0.7129754347450664 -2.302519022685414e-21
0.02204654596837726 0.1850179651509731 0.0146 0.05293873093796938 -0.7129754347450664 -2.302519022685415e-21
0.03808695652173913 0.18388002923735 0 0.0916061556940443 -0.7221386045284828 -1.888991347510926e-21
0.03504186799109572 0.1853191994190893 0.01109814818976008 0.08307182538282554 -0.7241765710832984 -2.333399968192425e-21
0.03504186799109572 0.1853191994190893 0.00350185181023992 0.08307182538282556 -0.7241765710832984 -2.333399968192425e-21
0.03808695652173913 0.18388002923735 0.009451697736151839 0.09160615569404429 -0.7221386045284828 -1.888991347510926e-21
0.03808695652173913 0.18388002923735 0.0146 0.09160615569404429 -0.7221386045284827 -1.888991347510926e-21
0.02801266861486781 0.1857451357251204 0.01158543109290201 0.06674700686481116 -0.7196187487690483 -2.553571531413011e-21
0.02801266861486782 0.1857451357251204 0.003014568907097998 0.06674700686481118 -0.7196187487690483 -2.55357153141301e-21
0.0339013404208834 0.1841727177518521 0 0.081055248650741 -0.7192699896899489 -2.103108906430004e-21
0.0339013404208834 0.1841727177518521 0.0146 0.08105524865074097 -0.7192699896899488 -2.103108906430007e-21
0.05078260869565217 0.1824112796482729 0 0.1244159764899913 -0.7334900408137952 -4.286134380378351e-22
0.04423552521852489 0.1840981073495772 0.007223618000434545 0.1054531812558892 -0.7315826384451426 -5.965677139279133e-22
0.05078260869565217 0.1824112796482729 0.007771407623240681 0.1244159764899913 -0.7334900408137951 -4.286134380378349e-22
0.05078260869565217 0.1824112796482729 0.0146 0.1244159764899914 -0.733490040813795 -4.286134380378348e-22
0.04544947830677894 0.1830192128928157 0 0.1108208983906793 -0.7283347764371518 -6.763707493742639e-22
0.04544947830677894 0.1830192128928158 0.0146 0.1108208983906792 -0.7283347764371517 -6.763707493742706e-22
0.06347826086956521 0.1805108881649853 0 0.1610224528904766 -0.7506652751841087 0
0.06347826086956521 0.1805108881649853 0.00559730725665938 0.1610224528904766 -0.7506652751841087 0
0.05725158572171347 0.1811756834365513 0.007346441193323495 0.1377049045976987 -0.7436157578461866 0
0.06347826086956521 0.1805108881649853 0.0146 0.1610224528904766 -0.7506652751841087 0
0.05670746540165077 0.1815740425174595 0 0.144188877439 -0.7421640324756257 -8.939828339198392e-37
0.05670746540165077 0.1815740425174595 0.0146 0.144188877439 -0.7421640324756256 0
0.07617391304347826 0.1781215446675253 0 0.1969195509253985 -0.7728857155418258 0
0.07617391304347826 0.1781215446675253 0.002863832275636165 0.1969195509253985 -0.7728857155418258 0
0.07403816295277477 0.177765154961296 0.002456112604308999 0.1842806536252044 -0.7664846122615518 0
0.07403816295277477 0.177765154961296 0.012143887395691 0.1842806536252045 -0.7664846122615518 0
0.07617391304347826 0.1781215446675253 0.0146 0.1969195509253985 -0.7728857155418261 0
0.06770871429734061 0.1798707936472652 0 0.1776672194540216 -0.7604468426022712 0
0.06671203096213207 0.1788689071504358 0.007299999999999999 0.1636182702130864 -0.7540420438986993 0
0.06770871429734061 0.1798707936472652 0.0146 0.1776672194540217 -0.7604468426022714 0
0.07834838855669711 0.1778040825489576 0 0.2055179236922362 -0.7806241717258632 0
0.07756218063427464 0.1770137702467953 0.001596507729415837 0.1945685073413345 -0.7723985330478119 0
0.07834838855669711 0.1778040825489576 0.0146 0.2055179236922362 -0.7806241717258633 0
0.07756218063427464 0.1770137702467953 0.01300349227058416 0.1945685073413345 -0.7723985330478119 0
0.30999961 0.05703523852030572 0 0.6235594967726629 0.8381956676740507 2.42489380420008e-21
0.3078948471783912 0.05247586279851153 0.007299999999999999 0.448840707591781 0.9126845545784749 9.374996282186205e-22
0.30999961 0.05703523852030572 0.0103377523085617 0.623559496772663 0.8381956676740514 2.424893804200083e-21
0.30999961 0.05703523852030572 0.0146 0.623559496772663 0.8381956676740513 2.424893804200083e-21
0.3075257508702728 0.04799895999999999 0 0 0 0
0.3075257508702727 0.04799895999999999 0.008580145687486862 0 0 0
0.3075257508702727 0.04799895999999999 0.0146 0 0 0
0.3104354952169519 0.05983374669917996 0.0135393229907486 0.7246213493054703 1.150531515030675 4.49998218117745e-21
0.3114743619382147 0.06076088952380952 0.0146 0.7238095335898467 1.117956071491014 6.430430822903989e-20
0.3104354952169519 0.05983374669917997 0.001060677009251405 0.7246213493054712 1.150531515030676 4.499982181177501e-21
0.3114743619382147 0.06076088952380952 0.00358864080353987 0.7238095335898411 1.117956071491012 6.430430822904209e-20
0.3114743619382147 0.06076088952380952 0 0.7238095335898411 1.117956071491012 6.43043082290421e-20
0.3159994799999999 0.06900768810680241 0 1.113130564232937 1.166209321140546 9.119231350714671e-20
0.314586102821595 0.06376719131724262 0.003439292318785761 0.8596501246487152 1.079935858416416 1.331137315669892e-19
0.3159994799999999 0.06900768810680243 0.00943456544616266 1.113130564232943 1.166209321140547 9.11923135071464e-20
0.314586102821595 0.06376719131724262 0.01116070768121424 0.8596501246487152 1.079935858416416 1.331137315669892e-19
0.3159994799999999 0.06900768810680243 0.0146 1.113130564232939 1.166209321140546 9.119231350714642e-20
0.2929173939656142 0.1098572791511412 0.01236762631557546 1.654191010898287 1.220574116153143 0
0.2929173939656142 0.1098572791511412 0.002232373684424541 1.654191010898287 1.220574116153143 0
0.2967910128690933 0.1118086076190476 0.0146 1.644809874374046 1.275246282424465 0
0.2967910128690933 0.1118086076190476 0.01165838391311198 1.644809874374047 1.275246282424465 0
0.2967910128690933 0.1118086076190476 0 1.644809874374046 1.275246282424464 0
0.2979998699999999 0.1128429490084606 0 1.638164426179078 1.292638646161708 7.948446825860234e-23
0.2979998699999999 0.1128429490084606 0.001183315129366279 1.638164426179078 1.292638646161708 7.948446825860216e-23
0.2977565596186041 0.112326137155485 0.0005920680895384088 1.642885958356622 1.289048348934047 5.44396025510716e-37
0.2977565596186041 0.112326137155485 0.01400793191046159 1.642885958356622 1.289048348934048 4.559316713652244e-37
0.2979998699999999 0.1128429490084606 0.0146 1.638164426179078 1.292638646161709 7.948446825860216e-23
0.30399974 0.1174427976963416 0 1.607592078077327 1.385567395472194 -6.951168343784432e-22
0.30399974 0.1174427976963416 0.006445669126680575 1.607592078077327 1.385567395472193 -6.95116834378443e-22
0.3026368823211419 0.1147074527021194 0.003316358872997074 1.623669948100381 1.358486676546278 -4.020506048003972e-36
0.3026368823211419 0.1147074527021194 0.01128364112700293 1.623669948100381 1.358486676546278 -3.889402589916887e-36
0.30399974 0.1174427976963416 0.0146 1.607592078077327 1.385567395472193 -6.951168343784428e-22
0.2987059222855151 0.1133104050759708 0 1.63651307006329 1.30481254939787 -1.852838970309356e-22
0.2983693570544785 0.1125945192720027 0.0008991046464986355 1.640692116059838 1.297972849702008 -2.294310516524007e-37
0.2983693570544785 0.1125945192720027 0.01370089535350136 1.640692116059837 1.297972849702008 -3.496092215655628e-37
0.2987059222855151 0.1133104050759708 0.0146 1.63651307006329 1.30481254939787 -1.852838970309353e-22
0.305969395197582 0.1203810129002074 0.007299999999999998 1.587610809942832 1.42590727273677 -5.407368851868238e-22
0.3095263438456799 0.1245705371428571 0.0146 1.555853544121438 1.495802537613516 -1.564977712848205e-21
0.3095263438456799 0.1245705371428571 0.01344836073897043 1.555853544121438 1.495802537613516 -1.564977712848205e-21
0.3095263438456799 0.1245705371428571 0 1.555853544121438 1.495802537613516 -1.564977712848205e-21
0.30999961 0.1253107697229713 0 1.549944339111197 1.507425686632447 -1.553134119753115e-21
0.30999961 0.1253107697229713 0.0008468465250105266 1.549944339111197 1.507425686632447 -1.553134119753114e-21
0.3098618686780454 0.1248635176646518 0.0003351778122753464 1.554043194377528 1.502163676401866 -1.626492148920339e-21
0.3098618686780454 0.1248635176646518 0.01426482218772466 1.554043194377529 1.502163676401867 -1.62649214892034e-21
0.30999961 0.1253107697229713 0.0146 1.549944339111198 1.507425686632447 -1.553134119753115e-21
0.3153276704146319 0.1373324666666667 0.0146 1.430133700794499 1.6744760187442 -1.652516509504151e-21
0.3145799912867742 0.1343131654288014 0.01114583595759627 1.457828208825744 1.647166834464825 -2.467109370746559e-21
0.3153276704146319 0.1373324666666667 0.01296522792220929 1.4301337007945 1.6744760187442 -1.652516509504149e-21
0.3145799912867742 0.1343131654288014 0.003454164042403731 1.457828208825744 1.647166834464825 -2.467109370746557e-21
0.3153276704146319 0.1373324666666667 0 1.430133700794499 1.674476018744202 -1.652516509504155e-21
0.313403464030596 0.1300923522562207 0.007300000000000004 1.497052585886279 1.600933675086987 -3.007533458721654e-21
0.3109142425040418 0.126515991887171 0.002225653982337906 1.536388724973541 1.533610279134238 -2.104054783663647e-21
0.3109142425040418 0.126515991887171 0.0123743460176621 1.536388724973541 1.533610279134238 -2.104054783663647e-21
0.31599948 0.14100192216639 0 1.401254269213172 1.705055431281263 -1.427975985464484e-21
0.31599948 0.14100192216639 0.004197958482375964 1.401254269213173 1.705055431281263 -1.427975985464484e-21
0.3157323765265795 0.1379006049268886 0.0006499658679170835 1.422022815704038 1.69000189456812 -1.795351537504754e-21
0.3157323765265795 0.1379006049268886 0.01395003413208291 1.422022815704038 1.69000189456812 -1.795351537504752e-21
0.31599948 0.14100192216639 0.0146 1.401254269213173 1.705055431281263 -1.427975985464485e-21
0.3178790127466007 0.07182228941974211 0.01265454711838966 1.561343344820428 1.29142738819429 7.687036558527243e-21
0.3203007323396079 0.07352281904761905 0.0146 1.432528791817297 1.220302701852938 2.873545955509497e-20
0.3178790127466007 0.0718222894197421 0.001945452881610341 1.561343344820432 1.291427388194291 7.687036558526617e-21
0.3203007323396078 0.07352281904761904 0.004452108522055229 1.432528791817299 1.220302701852939 2.873545955509477e-20
0.3203007323396079 0.07352281904761904 0 1.432528791817297 1.220302701852938 2.873545955509509e-20
0.3269696579761183 0.08344821816886891 0.003245069156674694 1.600715606832364 1.371885083183406 6.76839848399751e-21