/*--------------------------------*- C++ -*----------------------------------*\
| =========                 |                                                 |
| \\      /  F ield         | OpenFOAM: The Open Source CFD Toolbox           |
|  \\    /   O peration     | Version:  2206                                  |
|   \\  /    A nd           | Website:  www.openfoam.com                      |
|    \\/     M anipulation  |                                                 |
\*---------------------------------------------------------------------------*/
FoamFile
{
    version     2.0;
    format      ascii;
    arch        "LSB;label=32;scalar=64";
    class       volScalarField;
    location    "0.1";
    object      alpha.water;
}
// * * * * * * * * * * * * * * * * * * * * * * * * * * * * * * * * * * * * * //

dimensions      [0 0 0 0 0 0 0];

internalField   nonuniform List<scalar> 
2268
(
1
1
1
1
1
1
1
1
1
1
1
1
1
1
1
1
1
1
1
0.8841455893330999
0.1369416281712588
-4.757663733289175e-21
-4.045543139066626e-21
1
1
1
1
1
1
1
1
1
1
1
1
1
1
1
1
1
1
0.8874646016950349
0.1659092567490621
0.0008935099989453875
-1.07528077525365e-20
-6.681999781450498e-21
1
1
1
1
1
1
1
1
1
1
1
1
1
1
1
1
1
0.9936138580699719
0.4498309661080206
0.002776010162342787
1.222812663103007e-35
-3.08260154486874e-20
-7.297582936650322e-21
1
1
1
1
1
1
1
1
1
1
1
1
1
1
1
1
1
0.6209699576237497
0.02884473455858236
1.193793100763662e-19
-4.364329067725957e-20
-2.416744239227904e-20
-5.07998735731359e-21
1
1
1
1
1
1
1
1
1
1
1
1
1
1
1
1
0.8480095916982529
0.1412244546234038
1.159362960441894e-18
-5.210367421983645e-20
-3.844350675402039e-20
-1.721225614172503e-20
-2.631552052378859e-21
1
1
1
1
1
1
1
1
1
1
1
1
1
1
1
1
0.3872470245487927
-2.656315130666401e-18
2.445625326206014e-35
-3.689007799732151e-20
-2.378637840072372e-20
-9.062578377124949e-21
-1.119307633454012e-21
1
1
1
1
1
1
1
1
1
1
1
1
1
1
1
0.7837911836234435
0.08879606702660506
1.2608744897563e-21
-1.201800804340143e-20
-1.654744065472204e-20
-1.277585566365433e-20
-3.863412003713524e-21
-4.288515666641862e-22
1
1
1
1
1
1
1
1
1
1
1
1
1
1
1
0.4793113581354861
0.0009282480034005355
-3.99933861792246e-19
-6.263533918410504e-21
-9.063666231522675e-21
-5.525549949185165e-21
-1.443866277988573e-21
-1.546474594903961e-22
-2.794788263927132e-45
-1.039671714191764e-46
-3.1507915767235e-49
-2.839056847981167e-52
-1.981692901958868e-64
-2.683920380266573e-67
-2.543850596679176e-70
-1.62965602377498e-73
-5.610086619208384e-77
-8.366742712740775e-81
0
0
0
0
0
0
0
0
0
-3.009679178076183e-42
-1.666417139655971e-43
-8.1244434248702e-46
-1.589428876147257e-48
-1.162022533556323e-51
-7.168247283015642e-64
-1.004031362559871e-66
-9.605732283486348e-70
-6.001358440228042e-73
-1.987992900739163e-76
-2.706236384402225e-80
0
0
0
0
0
0
0
0
-1.203627483440869e-39
-8.890167168351952e-41
-6.201476056073309e-43
-1.974980891563782e-45
-3.104825786071341e-48
-1.968497555465601e-51
-1.223453356854584e-63
-1.669807371670787e-66
-1.494232489240867e-69
-8.636229299685872e-73
-2.529933982092809e-76
-3.032674141717853e-80
0
0
0
0
0
0
0
-2.565423185729923e-37
-2.2108804851894e-38
-2.106462042983138e-40
-9.851906610672656e-43
-2.545328763972217e-45
-3.527111608266728e-48
-2.255867722642665e-51
-1.380276076323165e-63
-1.755213659208208e-66
-1.451189160269047e-69
-7.416996380714644e-73
-1.915168265928445e-76
-1.940619915861221e-80
0
0
0
0
0
0
-3.429300048091573e-35
-2.93708446549121e-36
-3.749109901070569e-38
-2.458551202662108e-40
-9.412279019785601e-43
-2.182439514356609e-45
-3.041796870390623e-48
-1.896412374240074e-51
-1.095770122966986e-63
-1.282677545855459e-66
-9.386054735313469e-70
-4.21411944399568e-73
-9.235505570725496e-77
-7.872549034403002e-81
0
0
0
0
0
-3.110393855151917e-33
-2.247806201519527e-34
-3.814264609051048e-36
-3.424484325602651e-38
-1.85035752330262e-40
-6.474414247186538e-43
-1.498272886922712e-45
-2.019204833438702e-48
-1.164010969829003e-51
-6.342487686083224e-64
-6.557809436726373e-67
-4.203295118782783e-70
-1.599384699641634e-73
-2.951697487976575e-77
-2.017139858999085e-81
0
0
0
0
-1.963774632395529e-31
-1.05636456546814e-32
-2.317723019613471e-34
-2.817662694842294e-36
-2.09667072700609e-38
-1.054444811718442e-40
-3.638400920632021e-43
-8.052635574354274e-46
-9.994927017646053e-49
-5.284391703432174e-52
-2.637844953363452e-64
-2.38234084242549e-67
-1.304408432967321e-70
-4.163228992873417e-74
-6.264552461673181e-78
-3.317737266143465e-82
0
0
0
-8.621741040204397e-30
-3.264160553480888e-31
-8.430616061240086e-33
-1.368243430352011e-34
-1.400810433856766e-36
-9.891002466612187e-39
-4.830421563329772e-41
-1.577068958670944e-43
-3.209083835165007e-46
-3.628591749940678e-49
-1.704051524307168e-52
-8.099407520649695e-65
-6.219618344548671e-68
-2.812636512058162e-71
-7.247871625108704e-75
-8.383505834994117e-79
-3.273436835828869e-83
0
0
1
1
1
1
1
1
1
1
1
1
1
1
1
1
0.9162714721442405
0.185406877897468
1.69342603089743e-19
-6.670527877060105e-22
-2.159710224560999e-21
-2.471622834088394e-21
-1.184161287301461e-21
-2.739389437878024e-22
-3.565954922457856e-23
1
1
1
1
1
1
1
1
1
1
1
1
1
1
0.5478878938038181
0.006784695847000256
-8.314956303675853e-35
-2.225157042322297e-20
-3.367593721541386e-21
-6.695760957142832e-22
-2.172455178373299e-22
-4.463296433337323e-23
-6.629478702903415e-24
1
1
1
1
1
1
1
1
1
1
1
1
1
0.9651755642309444
0.215974102529409
-1.296805048202461e-20
-1.168467694795584e-20
-7.286893308428544e-21
-8.612474910633049e-22
-1.765929620261313e-22
-4.242105548970903e-23
-8.132439052506981e-24
-1.324298580144305e-24
1
1
1
1
1
1
1
1
1
1
1
1
1
0.7714812712970657
0.06474841522283718
-8.981298717667149e-20
-1.3473230605016e-20
-2.315622257295066e-21
-3.761791385031822e-22
-7.641377535058898e-23
-1.580339415497026e-23
-3.007036578937622e-24
-5.20758021423753e-25
1
1
1
1
1
1
1
1
1
1
1
1
1
0.5504639967470875
0.008629829015423212
-8.343985483409132e-22
-6.170863555397365e-21
-1.28275293460598e-21
-2.485231065356096e-22
-5.073594878444782e-23
-9.648490170479816e-24
-1.639776701201522e-24
-2.477600780702049e-25
1
1
1
1
1
1
1
1
1
1
1
1
1
0.3411669911500183
1.306369855498505e-18
-1.419241605154439e-36
-2.538911810757213e-21
-7.236109916463838e-22
-1.570374804377582e-22
-2.930100036545378e-23
-4.738466472588218e-24
-6.675977555609124e-25
-8.14854560211655e-26
1
1
1
1
1
1
1
1
1
1
1
1
0.9379635364749848
0.2044806776913017
4.186989339697969e-21
-1.591763550092718e-21
-1.526966563329448e-21
-4.034113696538604e-22
-7.631420730991036e-23
-1.1963483760607e-23
-1.608718076928979e-24
-1.865565212156563e-25
-1.850125982168044e-26
1
1
1
1
1
1
1
1
1
1
1
1
0.8519806099373792
0.116302093639086
-3.621828235810935e-20
-1.528515828878759e-36
-8.564192140529778e-22
-1.687257326238787e-22
-2.627010433490201e-23
-3.455273674428744e-24
-3.906050388819971e-25
-3.798061733955335e-26
-3.152867492235923e-27
1
1
1
1
1
1
1
1
1
1
1
1
0.7551587141780742
0.05862651441455605
3.80864954513477e-19
-1.187608186576872e-21
-3.087318211084139e-22
-4.952774883844546e-23
-6.552853998975978e-24
-7.403341369401252e-25
-7.202847900430388e-26
-6.035334655526272e-27
-4.332026058072676e-28
1
1
1
1
1
1
1
1
1
1
1
1
0.6505489919151052
0.02471125074341204
5.804275035566072e-22
-6.938671680279522e-22
-1.002656605844235e-22
-1.340469630881811e-23
-1.537096034478333e-24
-1.515615663959048e-25
-1.289073525748834e-26
-9.448246998455504e-28
-5.924130658933818e-29
1
1
1
1
1
1
1
1
1
1
1
1
0.5372245356654136
0.007241562283235556
0
-7.273522072448106e-22
-6.397714344043081e-23
-5.944388005290557e-24
-5.799282691090412e-25
-4.830789185915848e-26
-3.443130829472123e-27
-2.098857593406635e-28
-1.085029879359491e-29
1
1
1
1
1
1
1
1
1
1
1
1
0.409877354984251
0.0001591399901007277
-2.667103866400389e-21
-6.588105131297745e-22
-4.971096395752943e-23
-3.597469053289286e-24
-2.728362422683331e-25
-1.831699058376865e-26
-1.045006693903612e-27
-5.060144630848061e-29
-2.063859912730239e-30
1
1
1
1
1
1
1
1
1
1
1
1
0.2870955644964853
5.030516321441683e-19
-2.425738613129001e-21
-3.923214107677807e-22
-2.810992721565889e-23
-1.729370818474072e-24
-1.023678015105868e-25
-5.369379383160341e-27
-2.397396030323493e-28
-9.092483049674968e-30
-2.902214460095296e-31
1
1
1
1
1
1
1
1
1
1
1
1
0.2120480282518709
1.048416508423358e-23
-1.10217775541686e-21
-1.651086693303778e-22
-1.17229256780881e-23
-6.228503747273972e-25
-2.816424506778334e-26
-1.105287196341564e-27
-3.763012691233182e-29
-1.103586561259965e-30
-2.741972896357061e-32
1
1
1
1
1
1
1
1
1
1
1
1
0.1883392720055114
-8.928334210442764e-20
-4.77661196524612e-38
-5.77281909650151e-23
-4.24876704455376e-24
-1.807352274141258e-25
-5.861566774917932e-27
-1.764068413040243e-28
-4.564776451329244e-30
-1.01232779514317e-31
-1.894005358521909e-33
1
1
1
1
1
1
1
1
1
1
1
0.9631892838194407
0.1962234006550019
-1.10842774272292e-20
-2.371081661534431e-21
-2.823200966038571e-22
-9.533330488347593e-24
-7.962042139244936e-26
-9.567608221965527e-28
-2.231533501941609e-29
-4.436302963234974e-31
-7.48515768444167e-33
-1.056523358793823e-34
0.876832584223709
0.8719484855962798
0.8632945014571876
0.8500317537509791
0.8311572163383407
0.8067153070081808
0.7759215955177546
0.7380776442541326
0.6873086301053558
0.6015330803275267
0.4787071412317697
0.2944109255056808
0.1778160888039165
0.005607515200290851
-1.632342801184061e-21
-6.343693224028086e-23
-5.420262820833905e-24
-2.477727257561277e-26
-1.278857949429122e-28
-2.285222977323504e-30
-3.484126474067042e-32
-4.464469644952527e-34
-4.735553985794911e-36
0.1149985543288209
0.1097495318145814
0.1007945405110333
0.08797502928294024
0.07241982209971951
0.05470218138812426
0.03537401430637967
0.01528732467429307
0
-8.809131331533776e-19
-6.883441005374704e-21
-2.151193643196795e-22
0.009132621312214602
0.02047510905796068
0.0001545789093013622
-2.226638159237645e-21
-1.348034289134253e-22
-6.979243291736255e-27
-1.4484749054662e-29
-1.916440373503e-31
-2.214259635470644e-33
-2.136087214168844e-35
-1.687526654092381e-37
-2.28072789373623e-32
-7.076193044518894e-25
-1.642844903006945e-21
-6.352281548396875e-19
-1.142592646718622e-21
-2.542869556061231e-23
-4.213988351881123e-24
0
-2.646707148909673e-27
3.776084468780391e-26
-1.27027270623612e-24
1.940079540469392e-06
9.949313745340317e-07
0.01791114092813755
0.001218628210472246
1.876527141805393e-22
-2.814002845748639e-23
-2.047192093028793e-27
-1.426762554442026e-30
-1.310511619031467e-32
-1.125358432855387e-34
-8.038655479492106e-37
-4.655307324791901e-39
-2.428673204382171e-31
-6.843117280308966e-29
-6.882358635498928e-27
-2.900806851962318e-25
-5.029011960737743e-24
-2.887800457969664e-23
-2.086549077272428e-30
1.504336365099471e-13
1.011230879631761e-09
8.493835027640201e-09
3.159261372029415e-07
9.032046277191693e-06
0.0002004465164603103
0.004170002435800503
0.000967993974230872
-1.255540209668087e-22
-6.432665296517688e-24
-6.659699705519811e-28
-1.243269811511103e-31
-7.164995085826187e-34
-4.4785904433504e-36
-2.314266405419216e-38
-9.573659894731392e-41
-5.055866591809377e-34
-3.020216083218355e-32
-8.49816521285667e-31
-1.373178634881975e-29
-1.311419155772478e-28
-6.959742244312532e-28
-1.93948046716303e-27
5.034905684552885e-11
3.653563577644738e-09
3.041483910560423e-09
1.711595218219019e-06
8.986127376721346e-06
6.52065437728374e-06
8.369035513434869e-06
0.000733518565289942
-6.271475495224505e-23
-2.04257040302487e-24
-1.851628980929205e-28
-9.475051900303204e-33
-3.01616292443197e-35
-1.349663033120462e-37
-4.911254272072832e-40
-1.39812653225809e-42
-1.018832577159919e-34
-8.129806266269064e-33
-2.73367742280924e-31
-5.004796428242716e-30
-5.424262116395905e-29
-3.245491060697646e-28
-4.042945885149163e-28
4.192492144461128e-11
7.680849271633936e-09
1.773779620688864e-08
6.737478448245258e-11
7.934796259165783e-10
5.554055739810948e-10
1.986878177303307e-05
4.039651692029733e-05
-3.249021714197889e-23
-5.162480533102013e-25
-3.616991032299892e-29
-5.894077967142101e-34
-9.25765436206295e-37
-2.930491120519553e-39
-7.280633058954575e-42
-1.349652218956002e-44
-5.546461683687397e-35
-4.861354744041075e-33
-1.752679140180411e-31
-3.442753626540104e-30
-4.285464868759385e-29
-4.232325817572711e-28
-4.345934951419813e-27
-4.131365521725942e-26
-2.600909901022406e-25
-8.174235608917087e-25
-1.53935484692456e-26
1.137482015810914e-09
1.016017026002319e-09
-6.855036074740938e-24
-3.731437626208481e-23
-3.128343068072191e-23
-8.684003071984696e-26
-4.41426407849712e-30
-2.649908109030337e-35
-1.93918765699979e-38
-4.284185947205411e-41
-6.939278428191596e-44
-7.525047106099166e-47
-4.544371199230919e-38
-1.819798620624049e-35
-2.885461010592167e-33
-2.353137075033067e-31
-1.114489582586966e-29
-3.275606647293371e-28
-6.196312608812873e-27
-7.686307165305505e-26
-6.305429287420838e-25
-3.43946529943297e-24
-1.25941860695912e-23
-3.179479299314825e-23
-5.506264678921794e-23
-6.455382030174887e-23
-4.600706729982643e-23
-2.241969063472023e-23
-8.270948616842022e-27
-3.09951854045023e-31
-7.54522948380365e-37
-2.578675230737706e-40
-3.861348342044107e-43
-3.73384606589995e-46
-1.808177584738292e-49
-8.628181498114699e-41
-5.450244660368155e-38
-1.19649817846857e-35
-1.284708957578691e-33
-7.816719188203917e-32
-2.919759918604811e-30
-7.020510963666858e-29
-1.118508784824706e-27
-1.202433462089678e-26
-8.83959661256697e-26
-4.5025849615931e-25
-1.614531088775981e-24
-4.150579749933491e-24
-7.747008676127538e-24
-1.033533809996564e-23
-6.152875825937821e-24
-4.004405867607303e-28
-1.18211225474949e-32
-1.201196101931721e-38
-1.99758013866188e-42
-1.866628063883135e-45
-8.413119387725578e-49
-6.094923435587324e-54
-3.768686118273031e-44
-3.573166724980802e-41
-1.107785859547345e-38
-1.594718440478544e-36
-1.26241873742322e-34
-6.057169986320863e-33
-1.870013124715795e-31
-3.856059657541509e-30
-5.439387959018665e-29
-5.340827377267727e-28
-3.710544461177213e-27
-1.861096053732627e-26
-6.932510159884884e-26
-1.996812154477491e-25
-4.666739820183756e-25
-6.551339186456613e-25
-1.007234141280477e-29
-2.32208741498221e-34
-9.189910740989831e-41
-7.890330796529136e-45
-3.521551067963271e-48
-1.486875441428311e-53
-6.53456698527144e-57
-5.266122500773424e-49
-2.181876544362443e-46
-5.510255276371319e-44
-9.039311697686694e-42
-1.05291161175275e-39
-9.244039273615397e-38
-5.898091061281817e-36
-2.613886308492573e-34
-7.962948960414992e-33
-1.689857300824915e-31
-2.554481868642812e-30
-2.818012422551732e-29
-2.323889316425032e-28
-1.465606520477888e-27
-7.184061845703766e-27
-2.718415334476477e-26
-1.845078765583441e-31
-2.19299996447858e-36
-2.511390212390494e-43
-1.203461007866222e-47
-3.203061920099122e-53
-1.429015739504292e-56
-1.453055481826546e-62
-7.176556511584763e-55
-7.795374336183492e-52
-3.063645792772246e-49
-2.921214348489458e-46
-1.550902379137322e-43
-3.53080441663955e-41
-4.12274327306042e-39
-2.801633322061783e-37
-1.206956171469735e-35
-3.506936818373344e-34
-7.193706582683844e-33
-1.077113468266444e-31
-1.210932879474684e-30
-1.053091419523643e-29
-7.291625674580206e-29
-4.05705805084207e-28
-4.001053487927683e-33
-8.862745994599544e-39
-2.893070691851058e-47
-5.300137257296292e-53
-2.68131625223503e-56
-3.375168583960982e-62
-5.88175509335839e-66
-4.171510289310138e-59
-6.804410440880845e-56
-3.656679989762041e-53
-9.41046283084216e-51
-1.012313886795551e-47
-4.828577643509857e-45
-8.94299218444069e-43
-8.550493690259339e-41
-4.949801694509146e-39
-1.912289112086784e-37
-5.201843427264691e-36
-1.021684627287389e-34
-1.49564649855184e-33
-1.731292448182603e-32
-1.693514729698127e-31
-1.409537208907474e-30
-6.981352735249777e-35
-1.192275099733e-41
-4.815420829819053e-53
-3.396729822492876e-56
-6.272854748952386e-62
-1.348273773690788e-65
-5.998176827724994e-70
0
-3.777298725116822e-65
-1.529077933620822e-61
-1.529725216530328e-58
-5.63993652560037e-55
-5.865650403756581e-51
-1.390595531861776e-48
-1.280783883001774e-46
-6.143292457073804e-45
-1.73579809736066e-43
-3.087416228461017e-42
-3.597572433083747e-41
-2.834685239681909e-40
-1.618300171962025e-39
-8.666080601213632e-39
-6.668091972718745e-38
-6.477209358313282e-37
-3.188266439935816e-45
-2.104623634142466e-56
-7.582703230610067e-62
-2.289461064058204e-65
-1.441996455990486e-69
-1.336623241164576e-74
0
0
-2.483157761852727e-66
-6.752306959945631e-63
-5.323155989002575e-60
-2.279380412092806e-57
-5.748544243415752e-55
-8.666424157519373e-53
-8.34423184694406e-51
-5.524314263548387e-49
-2.671103116855489e-47
-9.779839223081751e-46
-2.76830847487375e-44
-6.260686664637307e-43
-1.182678967572225e-41
-1.930710758608674e-40
-2.715203962294512e-39
-5.23883413167144e-48
-3.928828747836755e-62
-2.26282646301461e-65
-2.33143612807546e-69
-3.199581282046855e-74
-8.691306555317713e-82
0
0
0
-2.832088469595743e-68
-6.156534659525745e-65
-8.504486749955437e-62
-4.35382739535886e-59
-9.922912324944131e-57
-1.295900895980421e-54
-1.133605421983178e-52
-7.251627446696171e-51
-3.457358854987495e-49
-1.234837208638031e-47
-3.542423890240258e-46
-8.900199423432174e-45
-2.026370056062064e-43
-3.973994393544607e-42
-3.709717213683183e-51
-7.651938061163515e-66
-1.834791207289923e-69
-4.775987013016308e-74
-5.049692862847242e-81
0
0
0
0
0
0
-2.981003225761021e-67
-4.631272660917991e-64
-1.079061121622178e-61
-1.078475896308561e-59
-5.90126245590712e-58
-1.972275338046303e-56
-4.263742249975456e-55
-6.127456494098301e-54
-1.066952854846092e-51
-1.058175158724122e-49
-1.046942526012283e-47
-4.722015484278235e-46
-8.203100397549959e-55
-4.267574451520144e-70
-3.23575894861722e-74
-1.622105022957063e-80
0
0
0
0
0
0
0
0
0
0
0
0
0
0
0
0
-7.93948064677392e-85
-8.919850755755206e-80
-1.663596522948479e-75
-7.939118915529576e-72
-6.140981389446776e-75
-2.836282359482519e-80
0
0
0
0
0
0
0
0
0
0
0
0
0
0
0
0
0
0
-1.857980888099541e-86
-2.38054124076327e-81
-4.731909467406568e-77
-9.249196613212764e-81
-4.987762416421416e-87
0
0
0
0
0
0
0
0
0
0
0
0
0
0
0
0
0
0
0
-2.945540747736887e-88
-3.982959075962267e-83
-2.009484672331276e-87
0
0
0
0
0
0
0
0
0
0
0
0
0
0
0
0
0
0
0
0
0
-2.379541486948652e-90
0
0
0
0
0
0
0
0
0
0
0
0
0
0
0
0
0
0
0
0
0
0
0
0
0
0
0
0
0
0
0
0
0
0
0
0
0
0
0
0
0
0
0
0
0
0
0
0
0
0
0
0
0
0
0
0
0
0
0
0
0
0
0
0
0
0
0
0
0
0
0
0
0
0
0
0
0
0
0
0
0
0
0
0
0
0
0
0
0
0
0
0
0
0
0
0
0
0
0
0
0
0
0
0
0
0
0
0
0
0
0
0
0
0
0
0
0
0
0
0
-7.059799991372056e-24
-1.07514597742582e-24
-1.163728996714938e-25
-9.031949388361271e-27
-1.557074998582915e-24
-2.812002213225372e-25
-3.836623363836174e-26
-4.206879595838745e-27
-3.500307083565757e-25
-8.086847945579294e-26
-1.803045487044165e-26
-3.814900692444913e-27
-1.52873634281754e-25
-3.950461155363553e-26
-8.682514408228479e-27
-1.542389200861863e-27
-6.230053460783021e-26
-1.323209976486106e-26
-2.300264686789246e-27
-3.182694642236569e-28
-1.65711948306551e-26
-2.818208613365177e-27
-3.933388062858395e-28
-4.454355832454863e-29
-3.098353145608836e-27
-4.368126618575727e-28
-5.157710311967928e-29
-5.109967195969699e-30
-4.506798829187617e-28
-5.502057548731117e-29
-5.74352434829144e-30
-5.12846236377694e-31
-5.445524102087371e-29
-5.885926232247665e-30
-5.454146555165064e-31
-4.293873311389658e-32
-6.508742658339424e-30
-6.076727733720563e-31
-4.793171758208219e-32
-3.157106497697301e-33
-9.742943985614084e-31
-7.298244834783469e-32
-4.554683994851412e-33
-2.34944268571528e-34
-1.463749656918508e-31
-8.555693995329961e-33
-4.128929041846037e-34
-1.635443381608141e-35
-1.62770520765648e-32
-7.475510993032506e-34
-2.817051216094783e-35
-8.646680963096355e-37
-1.219111542887652e-33
-4.418480788876341e-35
-1.306464024116183e-36
-3.116226065229166e-38
-6.443094764709322e-35
-1.805817309707181e-36
-4.101674827986178e-38
-7.4101936234568e-40
-2.732679765939986e-36
-5.897004078084792e-38
-1.017565783933115e-39
-1.365041885195313e-41
-9.215544858517339e-38
-1.512262225852878e-39
-1.94040499533463e-41
-1.864882078325994e-43
-2.433610758088341e-39
-2.974311429299478e-41
-2.739228316295436e-43
-1.774334540472221e-45
-4.867658619105414e-41
-4.289316728003297e-43
-2.681306044076112e-45
-1.051187265416386e-47
-6.998294416953892e-43
-4.193000416348699e-45
-1.599372319193116e-47
-2.9380655575052e-50
-6.723950530599879e-45
-2.43792232876505e-47
-4.339261369103131e-50
-7.352951171788882e-54
-3.843563456948239e-47
-6.417673945768431e-50
-6.825882217279562e-54
-9.749745823768036e-57
-9.711908395615733e-50
-6.236975583885456e-54
-8.969497118820547e-57
-2.128765567744996e-62
-5.540123230738967e-54
-7.855570238883559e-57
-1.957286351666667e-62
-6.819171744165613e-66
-6.602652493140619e-57
-1.725573725097456e-62
-6.824593485086736e-66
-3.493067576921164e-70
-1.411669757666264e-62
-6.195388149128947e-66
-4.157529771261884e-70
-4.569089297048007e-75
-5.33638860294533e-66
-4.533604838220113e-70
-6.159606653512009e-75
-2.331747186058199e-84
-4.8302439619875e-70
-8.214367687836236e-75
-1.204219071250204e-83
0
-9.904172800826055e-75
-5.852364692163462e-83
0
0
-2.433953806156828e-82
0
0
0
0
0
0
0
0
0
0
0
0
0
0
0
0
0
0
0
0
0
0
0
0
0
0
0
0
0
0
0
0
0
0
0
0
0
0
0
0
0
0
0
0
0
0
0
0
0
0
0
-2.610465531228917e-28
-6.486010553776666e-30
-1.62186610454544e-31
-3.388180994866692e-33
-5.058045014757711e-35
-5.176267905135666e-37
-3.598982454530161e-39
-1.677340545739591e-41
-5.074196507924586e-44
-9.348787360370557e-47
-9.349889250800359e-50
-3.77519649817536e-53
-1.9046750067111e-65
-1.197934248722922e-68
-4.298476924888799e-72
-8.553794693167945e-76
-7.254892731528762e-80
-1.801864626994915e-84
0
-1.924956857396388e-28
-7.304313922936985e-30
-2.018540714677493e-31
-3.601024410767329e-33
-4.062149871631999e-35
-2.952071639067752e-37
-1.397340162873646e-39
-4.233586410744503e-42
-7.801447266957749e-45
-7.843641782761649e-48
-3.238822608671741e-51
-9.55012492750892e-60
-1.360746846553574e-62
-1.223956922492523e-65
-6.57109608306945e-69
-1.966711825502538e-72
-2.96499414562891e-76
-1.702057849282903e-80
-2.105899329004252e-85
-3.180735834732501e-28
-1.69377045644257e-29
-5.523578782012813e-31
-1.123464171282109e-32
-1.455881423537946e-34
-1.208319482085288e-36
-6.328652625158335e-39
-1.997274688708737e-41
-3.41432335333874e-44
-2.387541246645787e-47
-3.520671037011821e-56
-8.114155423240311e-59
-1.2492993750647e-61
-1.221381077950839e-64
-7.027349713305603e-68
-2.109772539074669e-71
-2.681919640948869e-75
-9.66485163254021e-80
-7.347720736421268e-85
-9.50896447315561e-29
-3.799963225888775e-30
-9.651176475475746e-32
-1.556958030950643e-33
-1.591019743331617e-35
-1.011205751242622e-37
-3.817891874884129e-40
-7.7206778554637e-43
-6.33147880853952e-46
-7.25364430325086e-53
-2.259839020698109e-55
-4.792158856753209e-58
-6.642219591772969e-61
-5.659378584825313e-64
-2.688507489324923e-67
-5.994814648636833e-71
-4.255818285265594e-75
-2.789794707649371e-82
0
-1.506938076592454e-29
-4.919913649516408e-31
-1.118647025699531e-32
-1.85237773469812e-34
-2.378832597383964e-36
-2.463274452965716e-38
-2.019023444393618e-40
-1.240599793399252e-42
-5.439554951156421e-45
-1.651102939043417e-47
-3.41229405425886e-50
-4.734114197577311e-53
-4.274300816234052e-56
-2.314285922450313e-59
-6.258910317055704e-63
-6.073889551123477e-67
-4.61790915601635e-75
0
0
-1.778308550362144e-30
-5.342107390443608e-32
-1.232726342253384e-33
-2.216066472424163e-35
-3.06175082977206e-37
-3.141689968109037e-39
-2.312639560671181e-41
-1.190924654018869e-43
-4.222254031572624e-46
-1.019749803972833e-48
-1.659030784890666e-51
-1.768985825448735e-54
-1.145399389518795e-57
-3.788108210884495e-61
-4.662750097253689e-65
-1.726541538187355e-71
-8.286358779558001e-76
0
0
-1.852871629622553e-31
-5.291637997142892e-33
-1.169838073552604e-34
-1.946117027204068e-36
-2.360688974618695e-38
-2.03387732357339e-40
-1.221968124461448e-42
-5.060117913238693e-45
-1.433633715792089e-47
-2.757444460293468e-50
-3.521960793239802e-53
-2.800665760629876e-56
-1.209766477941428e-59
-2.339234448591457e-63
-1.254284202820075e-67
-8.585233512566056e-74
-1.881192882613352e-79
0
0
-1.675834957501999e-32
-4.266986937941697e-34
-8.16777736694694e-36
-1.139222115861513e-37
-1.130421921603328e-39
-7.849124403782155e-42
-3.774971069612075e-44
-1.250534055919112e-46
-2.838202579391943e-49
-4.333848433165341e-52
-4.215401118850674e-55
-2.344453440734178e-58
-6.523034199016706e-62
-6.778375709266371e-66
-3.381063825396809e-72
-1.754849198442507e-77
0
0
0
-1.20303163221474e-33
-2.565069902536615e-35
-4.02105532259289e-37
-4.520375540853729e-39
-3.582934849616581e-41
-1.981875144326076e-43
-7.611555317802676e-46
-2.020544009164238e-48
-3.646441279314402e-51
-4.259689137722127e-54
-2.937618930716247e-57
-1.066856846942318e-60
-1.556922772480116e-64
-7.159649519265021e-71
-6.298956558763014e-76
0
0
0
0
-7.210539701438617e-35
-1.237956308033649e-36
-1.550790180400499e-38
-1.389575450497474e-40
-8.792552156312536e-43
-3.895331434535215e-45
-1.196560469508038e-47
-2.49196320305736e-50
-3.345038387222207e-53
-2.658350775603256e-56
-1.131377007202645e-59
-2.074751592205559e-63
-9.527058860725013e-70
-1.228373462387482e-74
-3.643642061073119e-82
0
0
0
0
-4.163626203849518e-36
-5.57787755734922e-38
-5.487108309681862e-40
-3.880063271242078e-42
-1.936680965647915e-44
-6.679309034317144e-47
-1.538710337604109e-49
-2.235126382909937e-52
-1.879474441695532e-55
-8.423682502352852e-59
-1.840037225282781e-62
-8.733155018142043e-69
-1.518704690201392e-73
-1.674743137993939e-80
-1.289761092680826e-87
0
0
0
0
-2.207207026262436e-37
-2.263321202058931e-39
-1.707819915990723e-41
-9.204147000999363e-44
-3.426357266021854e-46
-8.417451379944101e-49
-1.27381126098126e-51
-1.075115737669103e-54
-4.670608789019415e-58
-1.177260743440318e-61
-5.867423455355176e-68
-1.303444255230211e-72
-3.282974647189399e-79
-5.56781781587337e-86
0
0
0
0
0
-8.882296199728368e-39
-6.876709169207339e-41
-3.863555310039634e-43
-1.509090613035872e-45
-3.876480680141287e-48
-6.036446655400144e-51
-5.037080964046513e-54
-2.015905524516216e-57
-5.736834046589478e-61
-3.022751744508144e-67
-8.252565465284202e-72
-3.762749721650869e-78
-1.027894514736866e-84
0
0
0
0
0
0
-2.41499467872218e-40
-1.381402916858939e-42
-5.557990447124741e-45
-1.475888229725448e-47
-2.357277779020829e-50
-1.949439449903888e-53
-7.008292820645199e-57
-2.214753467722562e-60
-1.235995874901992e-66
-4.027750468057497e-71
-2.895303540736193e-77
-1.112513880591313e-83
-1.582473342487209e-98
0
0
0
0
0
0
-4.219895174208325e-42
-1.72173736071543e-44
-4.680268118827043e-47
-7.644692112159795e-50
-6.300987112574862e-53
-2.015369736857075e-56
-6.977908906982986e-60
-4.12118108009719e-66
-1.566556680671303e-70
-1.620190963529843e-76
-8.102975016227358e-83
-4.324891738787265e-97
0
0
0
0
0
0
0
-5.450354195908226e-44
-1.440321099949401e-46
-2.301568566756112e-49
-1.82782114662414e-52
-5.008022303758212e-56
-1.835359129094438e-59
-1.144136106889847e-65
-4.979937409257323e-70
-6.947236061419874e-76
-4.299286371328595e-82
-5.339406159516556e-96
0
0
0
0
0
0
0
0
-4.941912007064526e-46
-7.623446291803784e-49
-5.76952676835025e-52
-1.293599227008542e-55
-4.969735649561878e-59
-3.113141552781698e-65
-1.509073962970819e-69
-2.716640392932691e-75
-1.98849389627513e-81
-4.848360784244323e-95
0
0
0
0
0
0
0
0
0
-2.801230572169563e-48
-2.005854323304566e-51
-3.495895534130831e-55
-1.404408416322011e-58
-9.003479832796539e-65
-4.743056689399884e-69
-1.081340293340287e-74
-9.272177141530954e-81
-4.433746400124062e-94
0
0
0
0
0
0
0
0
0
0
-7.669919019845921e-51
-9.80104241613404e-55
-4.076713159833248e-58
-2.669730558684728e-64
-1.562999059322006e-68
-4.583285934220805e-74
-4.518469241395685e-80
-4.407125840256342e-93
0
0
0
0
0
0
0
0
0
0
0
-2.892450687930362e-54
-1.239216044985433e-57
-8.280550150707934e-64
-5.407054449429211e-68
-2.074065699004214e-73
-2.381946765706148e-79
-4.788449030562754e-92
0
0
0
0
0
0
0
0
0
0
0
0
-3.871334302692133e-57
-2.635787110526805e-63
-1.918937502337588e-67
-9.628995110143635e-73
-1.296602489360938e-78
-5.882574656511935e-91
0
0
0
0
0
0
0
0
0
0
0
0
0
-8.375913550724989e-63
-6.805018321500259e-67
-4.446869037546286e-72
-7.003678724609369e-78
-7.166682790219196e-90
0
0
0
0
0
0
0
0
0
0
0
0
0
0
-2.462685849708503e-66
-2.098371096438224e-71
-3.858853250670893e-77
-9.182874469206577e-89
0
0
0
0
0
0
0
0
0
0
0
0
0
0
0
-9.922219039626289e-71
-2.144659100340757e-76
-1.234334818004734e-87
0
0
0
0
0
0
0
0
0
0
0
0
0
0
0
0
-1.196787024128993e-75
-1.763402609404452e-86
0
0
0
0
0
0
0
0
0
0
0
0
0
0
0
0
0
-2.347252076319301e-85
0
0
0
0
0
0
0
0
0
0
0
0
0
0
0
0
0
0
0
0
0
0
0
0
0
0
0
0
0
0
0
0
0
0
0
0
0
0
0
0
0
0
0
0
0
0
0
0
0
0
0
0
0
0
0
0
0
0
0
0
0
0
0
0
0
0
0
0
0
0
0
0
0
0
0
0
0
0
0
0
0
0
0
0
0
0
0
0
0
0
0
0
0
0
0
0
0
0
0
0
0
0
0
0
0
0
0
0
0
0
0
0
0
0
0
0
0
0
0
0
0
0
0
0
0
0
0
0
0
0
0
0
0
0
0
0
0
0
0
0
0
0
0
0
0
0
0
0
0
0
0
0
0
0
0
0
0
0
0
0
0
0
0
0
0
0
0
0
0
0
0
0
0
0
0
0
0
0
0
0
0
0
0
0
0
0
0
0
0
0
0
0
0
0
0
0
0
0
0
0
0
0
0
0
0
0
0
0
0
0
0
0
0
0
0
0
0
0
0
0
0
0
0
0
0
0
0
0
0
0
0
0
0
0
0
0
0
0
0
0
0
0
0
0
0
0
0
0
0
0
0
0
0
0
0
0
0
0
0
0
0
0
0
0
0
0
0
0
0
0
0
0
0
0
0
0
0
0
0
0
0
0
0
0
0
0
0
0
0
0
0
0
0
0
0
0
0
0
0
0
0
0
0
0
0
0
0
0
0
0
0
0
0
0
0
0
0
0
0
0
0
0
)
;

boundaryField
{
    leftWall
    {
        type            zeroGradient;
    }
    rightWall
    {
        type            zeroGradient;
    }
    lowerWall
    {
        type            zeroGradient;
    }
    atmosphere
    {
        type            zeroGradient;
    }
    defaultFaces
    {
        type            empty;
    }
}


// ************************************************************************* //
