/*--------------------------------*- C++ -*----------------------------------*\
| =========                 |                                                 |
| \\      /  F ield         | OpenFOAM: The Open Source CFD Toolbox           |
|  \\    /   O peration     | Version:  2206                                  |
|   \\  /    A nd           | Website:  www.openfoam.com                      |
|    \\/     M anipulation  |                                                 |
\*---------------------------------------------------------------------------*/
FoamFile
{
    version     2.0;
    format      ascii;
    arch        "LSB;label=32;scalar=64";
    class       volScalarField;
    location    "0.1";
    object      alpha.water_0;
}
// * * * * * * * * * * * * * * * * * * * * * * * * * * * * * * * * * * * * * //

dimensions      [0 0 0 0 0 0 0];

internalField   nonuniform List<scalar> 
2268
(
1
1
1
1
1
1
1
1
1
1
1
1
1
1
1
1
1
1
1
0.4940033257389185
-7.925090359659734e-21
-6.999124489681476e-21
-3.932458843087634e-21
1
1
1
1
1
1
1
1
1
1
1
1
1
1
1
1
1
1
0.5571102102965134
0.01645405022007102
-1.217682628063441e-21
-1.734469523386512e-20
-5.44576532248438e-21
1
1
1
1
1
1
1
1
1
1
1
1
1
1
1
1
1
0.8300447696127945
0.1305656755728895
-5.040452267968774e-19
-3.883603487263479e-20
-2.53115598438839e-20
-4.017690324985612e-21
1
1
1
1
1
1
1
1
1
1
1
1
1
1
1
1
0.9329832478268905
0.2487547522641468
-4.120166203222122e-19
0
-4.192141861981897e-20
-1.680613022258701e-20
-1.898061852178732e-21
1
1
1
1
1
1
1
1
1
1
1
1
1
1
1
1
0.5487267832475996
0.01180754219128989
-4.205525610329596e-19
-3.271439326212214e-20
-2.888824131816752e-20
-7.891300081485968e-21
-7.247475373989659e-22
1
1
1
1
1
1
1
1
1
1
1
1
1
1
1
0.8687957488225665
0.143222615360715
-6.643840770899496e-20
-1.222234225445554e-20
-2.592851819042672e-20
-1.37762767993134e-20
-3.054187944203063e-21
-2.455614617012292e-22
1
1
1
1
1
1
1
1
1
1
1
1
1
1
1
0.527773394164853
0.008651701023697656
5.196953818187779e-35
-1.057472402136418e-20
-1.223319388023482e-20
-5.421836702001163e-21
-1.060877234045953e-21
-7.299929683246613e-23
1
1
1
1
1
1
1
1
1
1
1
1
1
1
0.9833841408671553
0.2309796111894384
-4.964464206819971e-20
-1.609507302005507e-21
-5.335853497892829e-21
-5.105904805434278e-21
-1.954452917337476e-21
-3.072481991121578e-22
-2.181853263591148e-23
-3.589409946689384e-47
-2.642540999560528e-49
-3.049831840610261e-61
-6.328520792340183e-64
-7.222434887066583e-67
-4.930685213355946e-70
-1.899125860703626e-73
-3.324738379221875e-77
0
0
0
0
0
0
0
0
0
0
0
-7.927470302910856e-44
-1.33323684150826e-45
-1.948053191351877e-48
-1.489631139744467e-60
-2.510748586220201e-63
-2.559221578941775e-66
-1.812096987957773e-69
-7.090010597472108e-73
-1.181681998959907e-76
0
0
0
0
0
0
0
0
0
0
-5.387628170447363e-41
-1.518117812767597e-42
-4.728457739932996e-45
-4.583422587940366e-48
-2.846180517306269e-60
-4.214889600022497e-63
-4.303203851750119e-66
-2.979463748744975e-69
-1.075547239762229e-72
-1.639625829966658e-76
0
0
0
0
0
0
0
0
0
-1.729312261363891e-38
-6.807441142878473e-40
-3.457068566818324e-42
-7.300901670565436e-45
-5.759000618563275e-48
-3.234434478655221e-60
-4.802576851205953e-63
-4.794683994915487e-66
-3.061903545073502e-69
-1.01261420409302e-72
-1.354695857499846e-76
0
0
0
0
0
0
0
0
-3.199651203426147e-36
-1.484340390491427e-37
-1.113558613542585e-39
-3.930263618573092e-42
-6.813295600266959e-45
-4.900137332291897e-48
-2.800570375442623e-60
-4.047231295088857e-63
-3.726067862251847e-66
-2.171361551801496e-69
-6.323461161951567e-73
-7.419770243913441e-77
0
0
0
0
0
0
0
-3.802472237330623e-34
-1.748712866311836e-35
-1.860001265260678e-37
-9.913265561483873e-40
-2.891471741101915e-42
-4.649187422620287e-45
-3.3148897444294e-48
-1.885724430078751e-60
-2.501713682526536e-63
-2.093821807512153e-66
-1.071335379303472e-69
-2.738779437639884e-73
-2.710589776199785e-77
0
0
0
0
0
0
-2.94117195519212e-32
-1.194120269079854e-33
-1.743909094086601e-35
-1.340445642207111e-37
-5.937205222925102e-40
-1.633406082684137e-42
-2.575269356429628e-45
-1.764345629475101e-48
-9.562866470011835e-61
-1.147045582669552e-63
-8.491391817635292e-67
-3.793824865078141e-70
-8.318951398779455e-74
-6.836876921572732e-78
0
0
0
0
0
-1.317331379986282e-30
-4.825253850301353e-32
-9.310070610215651e-34
-1.00984578838526e-35
-6.541020756373555e-38
-2.782792089433728e-40
-7.428068575138314e-43
-1.11180366350363e-45
-6.995365391347589e-49
-3.73638464748044e-61
-3.942558770510825e-64
-2.504793942271731e-67
-9.497161006288805e-71
-1.713369655565707e-74
-1.152352518763116e-78
0
0
0
0
1
1
1
1
1
1
1
1
1
1
1
1
1
1
0.7592960553901873
0.07022617045789084
6.393382656616463e-26
-8.942066716119643e-22
-1.63134125254522e-21
-1.134857734422663e-21
-3.270960944292769e-22
-5.190040150697056e-23
-6.040907129101559e-24
1
1
1
1
1
1
1
1
1
1
1
1
1
1
0.3576905300730082
5.244628868466263e-18
-1.589667336606577e-19
-1.493883176852e-20
-6.92839035224266e-22
-2.490651674711968e-22
-5.790920771531826e-23
-9.768521149315286e-24
-1.292041462966469e-24
1
1
1
1
1
1
1
1
1
1
1
1
1
0.8745694020276451
0.1214304174436958
4.301735707995178e-20
-1.433785069128539e-20
-2.251454612803218e-21
-4.057496350943141e-22
-7.713348650365475e-23
-1.482852408878451e-23
-2.500909718505931e-24
-3.708667822799395e-25
1
1
1
1
1
1
1
1
1
1
1
1
1
0.6572111970632356
0.02717649615052286
-9.837883691059835e-20
-6.871652599149092e-21
-1.360038426119991e-21
-2.356777063141648e-22
-4.775084648381902e-23
-9.173145647917028e-24
-1.553177534225011e-24
-2.351268403285405e-25
1
1
1
1
1
1
1
1
1
1
1
1
1
0.4396106433607666
7.259074900300876e-18
0
-6.103983579629426e-21
-8.787707839528471e-22
-1.869577075250481e-22
-3.59551543103934e-23
-5.948975077251968e-24
-8.491712402017092e-25
-1.04934002846125e-25
1
1
1
1
1
1
1
1
1
1
1
1
0.9772440975945339
0.2622802213020337
3.162183403051005e-19
-1.17568093722718e-36
-1.852572241137006e-21
-5.724701336961367e-22
-1.154506741617384e-22
-1.869149024689266e-23
-2.54583659221471e-24
-2.9543732755451e-25
-2.910180498916743e-26
1
1
1
1
1
1
1
1
1
1
1
1
0.897269573833312
0.1571073686175167
5.252561239122096e-21
-2.509248252472069e-21
-1.35269181377432e-21
-3.015478422343065e-22
-4.898304220342174e-23
-6.52408433753583e-24
-7.345460337649309e-25
-7.035722116317993e-26
-5.711787296849371e-27
1
1
1
1
1
1
1
1
1
1
1
1
0.8092820158167757
0.08652862817490055
-9.093453224903887e-21
-2.695974662295137e-21
-6.500376445392862e-22
-1.074539755767112e-22
-1.435926383132828e-23
-1.612335483849137e-24
-1.542812016208941e-25
-1.264171933667866e-26
-8.868102260271081e-28
1
1
1
1
1
1
1
1
1
1
1
1
0.7123582679582477
0.04199246561798517
2.624038936560275e-21
-9.482433495504629e-22
-1.924841391917678e-22
-2.673953059782989e-23
-3.090087410186304e-24
-3.030130142580821e-25
-2.549310088268688e-26
-1.849085089353628e-27
-1.152247963147771e-28
1
1
1
1
1
1
1
1
1
1
1
1
0.612121846578666
0.01675521247660659
4.253685753752086e-22
-6.127538626669188e-22
-6.911411024206006e-23
-8.150006576257814e-24
-8.256958241595973e-25
-7.138905214746572e-26
-5.291626865945507e-27
-3.356002476637346e-28
-1.800089517339973e-29
1
1
1
1
1
1
1
1
1
1
1
1
0.5093827526601626
0.004522118391429041
-2.173040341340402e-23
-7.628725186688067e-22
-6.109180504192267e-23
-5.160646545212398e-24
-4.389734254537543e-25
-3.140897362547732e-26
-1.897656196088367e-27
-9.653077752748513e-29
-4.090756073430419e-30
1
1
1
1
1
1
1
1
1
1
1
1
0.3989608138017894
2.087980330171399e-19
-3.265207647963147e-21
-6.497208315602348e-22
-4.726827507483026e-23
-3.219403048760377e-24
-2.154661220974324e-25
-1.230952488595269e-26
-5.88135162560187e-28
-2.343366174406523e-29
-7.713790830104504e-31
1
1
1
1
1
1
1
1
1
1
1
1
0.2862249311992034
-1.167040321787063e-21
-2.379602965018117e-21
-3.44738128305098e-22
-2.404792873198942e-23
-1.39680583924062e-24
-7.336908723504878e-26
-3.250004198147377e-27
-1.203125829939677e-28
-3.710395972262796e-30
-9.429582834118754e-32
1
1
1
1
1
1
1
1
1
1
1
1
0.2060187558293785
-6.891456301751463e-23
-9.016566620429433e-22
-1.287761691336527e-22
-8.895650363536396e-24
-4.420128891658103e-25
-1.751798304182999e-26
-5.77262703364159e-28
-1.608351397229343e-29
-3.772182042502418e-31
-7.320435702690152e-33
1
1
1
1
1
1
1
1
1
1
1
1
0.1774503325244282
-5.845812048317381e-24
-2.349349692242333e-22
-3.840330223027181e-23
-2.685332998925639e-24
-1.075398518764599e-25
-3.006133993223971e-27
-7.533617412653161e-29
-1.580651296379798e-30
-2.764772352808475e-32
-3.963431960702211e-34
1
1
1
1
1
1
1
1
1
1
1
0.9980273883068748
0.1849681209318678
-2.15911109329717e-23
-2.5932325461344e-21
-2.205304116706204e-22
-5.356588867441806e-24
-4.098670237021886e-26
-4.044788525745987e-28
-7.709425445762236e-30
-1.225645227255468e-31
-1.602867258492119e-33
-1.691196168630999e-35
0.9604947280347875
0.9580745911385762
0.9537318362894169
0.9469732628542699
0.9365840680960649
0.9227137727172116
0.9047437970462169
0.882008510704922
0.8526733009505069
0.8078519586841528
0.7326057857253806
0.5279764068743871
0.1989869882007307
0.002593540963578235
3.303579896779016e-22
-5.08660228791567e-23
-3.629856958514313e-24
-1.847492261173624e-26
-4.43775930503054e-29
-6.270638579111868e-31
-7.484312232986474e-33
-7.26177076229593e-35
-5.581772851168919e-37
0.2545845011464453
0.2478129586811501
0.2361537279229562
0.2192112917283884
0.1983354853114002
0.1739608697849479
0.1464442482499741
0.1166047031381043
0.08581854572736089
0.05118444130186364
0.009756281519751954
1.376491484886195e-19
0.04278496197425908
0.01925509392036231
-6.062721997068559e-20
-3.493002781140584e-21
-9.55589271724727e-23
-3.991440436822302e-27
-4.175640513236031e-30
-4.088358946330223e-32
-3.582093561119074e-34
-2.521345835724224e-36
-1.377762776639301e-38
-2.605068957049976e-33
-1.929698192778644e-30
-5.179918112105343e-28
-8.165429368100343e-19
-1.474545208530998e-21
-2.242485108505793e-23
-5.507464656233276e-24
0
-2.646707182866058e-27
3.770240761341754e-26
4.239615970890264e-25
3.453264914821816e-07
5.444708521241288e-22
0.01780814120768335
0.001486536108192652
-8.494295205269889e-22
-9.93295568108189e-24
-1.420900545169508e-27
-3.581258108581767e-31
-2.124429173503664e-33
-1.328375971553394e-35
-6.551844895649685e-38
-2.441173453654148e-40
-5.058057004853344e-32
-2.399018302537476e-29
-3.706463207557047e-27
-2.251394177266236e-25
-5.280615372102383e-24
-3.889719407822462e-23
-4.998234834807437e-31
8.669706948796533e-13
9.410795547821173e-10
9.513822325091642e-09
6.780482200437387e-08
8.338558804584435e-06
7.184887579909666e-05
0.007189878347577663
0.001193705397899505
-1.549404979763029e-22
-4.744236237229975e-24
-4.753517520368076e-28
-2.859123276410339e-32
-8.543471479526875e-35
-3.703203939405762e-37
-1.2260355237681e-39
-2.929659597639783e-42
-3.176853627138517e-34
-1.973361066356002e-32
-5.927689847292892e-31
-1.063825385649361e-29
-1.163107136296199e-28
-7.139300824564752e-28
-1.936343999552235e-27
-2.346959408703068e-27
2.867246535873935e-09
2.188533535635424e-08
6.969962483924879e-07
1.211214375991326e-05
1.091783777199602e-05
6.366502130993125e-06
0.0008735873145446
-2.825001119122081e-23
-1.351132587334789e-24
-1.158726431392383e-28
-1.955145650196534e-33
-2.513206582494381e-36
-7.30524246813384e-39
-1.52793811390199e-41
-2.086594026217321e-44
-4.690335460702415e-35
-4.214417854432657e-33
-1.595993080203458e-31
-3.290667388368596e-30
-4.003813152509818e-29
-2.97866505396853e-28
-8.645618819652312e-28
9.69534172630356e-27
5.830897257702517e-09
2.718500053624902e-08
1.132485828147581e-08
8.667049035986673e-10
5.554055739814565e-10
9.942365041218337e-06
3.128734040286687e-05
-4.235880699963876e-23
-3.231590845011714e-25
-1.810991011269872e-29
-9.707101245887996e-35
-5.00214452852441e-38
-9.32863061560444e-41
-1.116274687524398e-43
-6.597742610369322e-47
-2.394210134955089e-35
-2.472082006856641e-33
-1.037612208320004e-31
-2.322805785709502e-30
-3.087485810685623e-29
-2.703039698881551e-28
-2.057017791726199e-27
-1.84267232445597e-26
-1.378295509646175e-25
-5.161427425457567e-25
-2.556689290210691e-26
1.552331060785636e-09
1.878380727696861e-09
1.506864790438207e-16
4.423454284923241e-23
-4.485243243801214e-23
-4.462279579255047e-26
-1.619610746076687e-30
-2.903656142777019e-36
-6.073559381276673e-40
-6.645199241060306e-43
-3.527941735651508e-46
-2.627081138183397e-51
-3.414943349489574e-39
-1.369819146804684e-36
-3.152530521806522e-34
-3.733684335306045e-32
-2.442041505555593e-30
-9.492090820285533e-29
-2.296863822073051e-27
-3.549685273558101e-26
-3.546962948230037e-25
-2.307507498034539e-24
-9.866325513345133e-24
-2.84111574693648e-23
-5.521294238053972e-23
-7.220820208187872e-23
-5.590059411338307e-23
-2.655047078474021e-23
-3.017305005229535e-27
-7.529157329695366e-32
-4.278591958955086e-38
-3.847963784261413e-42
-1.885200054899861e-45
-7.794721581452173e-51
-3.781607366844542e-54
-1.030089213368945e-42
-1.743478258436456e-39
-7.472701101934562e-37
-1.321554625459992e-34
-1.195551409180856e-32
-6.203107324089021e-31
-1.974135880878858e-29
-4.016014555948542e-28
-5.35975314867632e-27
-4.775938437183103e-26
-2.882734559975833e-25
-1.19698640224645e-24
-3.481479493132161e-24
-7.197211385897816e-24
-1.04880464075718e-23
-6.199100947729115e-24
-9.648795322488374e-29
-1.663103279247965e-33
-2.236970954396561e-40
-9.571273144930229e-45
-2.281547092484697e-50
-1.06280265770131e-53
-1.068002581305805e-59
-5.525189529611184e-46
-5.143875095730079e-43
-3.626171836339302e-40
-1.01026537869974e-37
-1.313051780075819e-35
-9.285336640372212e-34
-3.938463969666967e-32
-1.06580554691713e-30
-1.911812382934485e-29
-2.326504060885887e-28
-1.95254022038984e-27
-1.150516640371916e-26
-4.876620417954203e-26
-1.537534035283891e-25
-3.813936358436018e-25
-5.545217151586754e-25
-2.116520977353476e-30
-1.532460418682042e-35
-4.255098138774854e-44
-6.026823867623074e-50
-2.88700397871772e-53
-3.332832855832778e-59
-5.82986360671867e-63
-6.052963318376508e-50
-1.863513190215193e-47
-3.102281645707691e-45
-5.117564549922765e-43
-6.628558042397111e-41
-6.125809261577868e-39
-4.539833542486461e-37
-2.673179983976556e-35
-1.133640031383348e-33
-3.296071534274954e-32
-6.591241537812317e-31
-9.302338159641557e-30
-9.55788689129134e-29
-7.337937686209183e-28
-4.28887908648877e-27
-1.922661038394556e-26
-7.194593817941942e-32
-4.454392541891367e-38
-1.101959230121699e-49
-6.254802022223456e-53
-9.423701099854748e-59
-1.883264923764895e-62
-8.022641064956217e-67
-3.88017776542027e-57
-1.038264783745409e-53
-7.684041919025054e-51
-2.511865335506816e-48
-4.422439559940649e-46
-3.284314174488415e-43
-1.073740268058351e-40
-1.512110155655711e-38
-1.118039277907759e-36
-4.926775472751133e-35
-1.411954283009873e-33
-2.808371310590003e-32
-4.053782024876657e-31
-4.360210173767691e-30
-3.600154721243835e-29
-2.366216745634269e-28
-2.144904094214042e-33
-1.51494234284404e-41
-8.506246601278233e-53
-2.064064343630716e-58
-5.134210202114318e-62
-2.839061474431009e-66
-2.429402053656782e-71
-4.969843058312512e-62
-3.985695775378304e-58
-5.220243827748702e-55
-2.585011298056199e-52
-6.257821492126449e-50
-8.629205736093518e-48
-8.488439553521755e-45
-2.651930949215645e-42
-3.144340079759468e-40
-1.97665714472301e-38
-7.807630584044289e-37
-2.140056935124482e-35
-4.211414195259858e-34
-5.968862192504851e-33
-6.595848307119757e-32
-6.366717724764143e-31
-3.413916189819067e-35
-5.606772217895526e-44
-2.547625679174571e-58
-9.809332827528909e-62
-7.745545098386813e-66
-8.908302267477355e-71
-2.162265168227912e-78
0
0
0
-1.9228317452197e-61
-3.709426624897858e-58
-2.065338815012311e-55
-5.526560810085429e-52
-4.154898958513213e-48
-5.804766193596644e-46
-3.19580961621336e-44
-9.197277522190091e-43
-1.546838131752788e-41
-1.602685196783736e-40
-1.056256067060383e-39
-4.921064565215902e-39
-2.690998036872115e-38
-2.645501129159269e-37
-9.176439545712365e-47
-8.64416156460171e-62
-1.252515990624813e-65
-2.350566227461294e-70
-1.998190548606294e-77
0
0
0
0
0
-7.028309537270085e-63
-1.098643413656202e-59
-5.41168937126743e-57
-1.58955785990527e-54
-2.855272365382883e-52
-3.102792135831968e-50
-2.201967091645803e-48
-1.109469281099227e-46
-4.220835400561136e-45
-1.238830229487234e-43
-2.83481808425701e-42
-5.396108954080358e-41
-8.962246981616761e-40
-4.853114203876562e-50
-8.356155111448549e-66
-3.477821399770404e-70
-1.186940254607232e-76
0
0
0
0
0
0
0
-5.437925324913822e-65
-7.621502312449982e-62
-7.55704650021041e-59
-2.765237073162312e-56
-4.498299864644108e-54
-4.343104606824719e-52
-2.944998640884908e-50
-1.517147248709426e-48
-5.808479031744034e-47
-1.653916598061726e-45
-4.177679642271258e-44
-9.843787423878284e-43
-1.044697371108259e-66
-2.101542347469795e-70
-4.82028779597501e-76
0
0
0
0
0
0
0
0
0
0
-3.189696548855053e-64
-3.658081684590616e-61
-5.478652923856017e-59
-3.512381976977772e-57
-1.225942947342305e-55
-2.56591654317147e-54
-3.33915512559225e-53
-2.673595416737513e-52
-3.750890717107362e-49
-2.55179811850183e-47
-1.554902796784622e-71
-5.606178074836008e-76
-1.353432570517566e-82
0
0
0
0
0
0
0
0
0
0
0
0
0
0
0
0
0
0
0
-3.349348998239332e-82
-3.815291670739783e-77
-2.203378343472706e-82
0
0
0
0
0
0
0
0
0
0
0
0
0
0
0
0
0
0
0
0
0
-8.852583937318711e-84
0
0
0
0
0
0
0
0
0
0
0
0
0
0
0
0
0
0
0
0
0
0
0
0
0
0
0
0
0
0
0
0
0
0
0
0
0
0
0
0
0
0
0
0
0
0
0
0
0
0
0
0
0
0
0
0
0
0
0
0
0
0
0
0
0
0
0
0
0
0
0
0
0
0
0
0
0
0
0
0
0
0
0
0
0
0
0
0
0
0
0
0
0
0
0
0
0
0
0
0
0
0
0
0
0
0
0
0
0
0
0
0
0
0
0
0
0
0
0
0
0
0
0
0
0
0
0
0
0
0
0
0
0
0
0
0
0
0
0
0
0
0
0
0
0
0
0
0
0
0
0
0
0
0
0
0
0
0
0
0
0
0
0
0
0
0
-1.294370820011428e-24
-1.740615045977102e-25
-1.477870193600275e-26
-9.79977200259855e-28
-2.572131492078988e-25
-3.599744968674296e-26
-4.04557577278745e-27
-4.572186620829496e-28
-9.697516894657545e-26
-2.398912055435401e-26
-5.406750740795004e-27
-9.977940836308015e-28
-6.057195181975843e-26
-1.321812878163481e-26
-2.323865895799072e-27
-3.149046206691744e-28
-2.153195679666972e-26
-3.633185796624118e-27
-4.897611620603074e-28
-5.16854980255737e-29
-4.786668812576577e-27
-6.511398098089653e-28
-7.275351166318005e-29
-6.713867316727744e-30
-7.917473764463757e-28
-9.306664495516704e-29
-9.329769262669591e-30
-8.012284100355248e-31
-1.087310360043435e-28
-1.147704074761993e-29
-1.038979406929226e-30
-7.953700376156433e-32
-1.261414963511836e-29
-1.175047743156767e-30
-9.189399448846598e-32
-5.913390255809128e-33
-1.664466110710385e-30
-1.274477392567398e-31
-8.006010777602488e-33
-4.0661832502177e-34
-2.956125998223854e-31
-1.736360501069947e-32
-8.265348339347428e-34
-3.158029706148159e-35
-4.338482716547366e-32
-1.96284302860283e-33
-7.130690509754843e-35
-2.059210840432428e-36
-4.130483049659836e-33
-1.446014535701033e-34
-4.028249383193359e-36
-8.797883260334877e-38
-2.484720467168371e-34
-6.697038017507642e-36
-1.41886614539348e-37
-2.30816227960479e-39
-1.003561329423588e-35
-2.023296258640186e-37
-3.148025448167665e-39
-3.637441721793209e-41
-3.147929832546851e-37
-4.662883568135151e-39
-5.153424440228328e-41
-3.990117270216286e-43
-7.488579404187248e-39
-7.912813149978372e-41
-5.882753790612537e-43
-2.740610492912293e-45
-1.286019389793306e-40
-9.166422680493045e-43
-4.125502880825014e-45
-8.919685882154356e-48
-1.487431563187442e-42
-6.364759519373203e-45
-1.325947036611594e-47
-2.33224993132025e-51
-1.044016492112014e-44
-2.035019000067774e-47
-2.220697541893204e-51
-3.601018743845422e-54
-3.310941088127853e-47
-2.162894762718345e-51
-3.492308279113924e-54
-8.798925675727952e-60
-2.134338532730412e-51
-3.364564133544284e-54
-8.765314137695271e-60
-3.300528849993149e-63
-3.25543219751091e-54
-8.76073920819967e-60
-3.694023985294655e-63
-2.001709033926055e-67
-8.503629206013949e-60
-3.92431506384954e-63
-2.746496967664496e-67
-3.154384798682404e-72
-4.140677448322337e-63
-3.610866742406984e-67
-5.044915148818274e-72
-1.970061950336187e-81
-4.852780852571242e-67
-8.338101087931711e-72
-1.239984965475213e-80
0
-1.301844052190006e-71
-7.661407978240953e-80
0
0
-4.226878314840269e-79
0
0
0
0
0
0
0
0
0
0
0
0
0
0
0
0
0
0
0
0
0
0
0
0
0
0
0
0
0
0
0
0
0
0
0
0
0
0
0
0
0
0
0
0
0
0
0
0
0
0
0
0
0
0
0
0
0
0
0
-3.232658541413077e-29
-1.003996735473182e-30
-2.386047086914443e-32
-3.718550674413882e-34
-3.740381245704699e-36
-2.446782700669604e-38
-1.022126393086967e-40
-2.580403941085306e-43
-3.543540688283234e-46
-1.981362736742919e-49
-1.166874677954748e-61
-1.049791569056837e-64
-5.559833959688462e-68
-1.743831541007793e-71
-2.563127675856611e-75
-1.314221857574598e-79
0
0
0
-2.40199631527869e-29
-8.417259865180533e-31
-1.713689969346222e-32
-2.032401095493172e-34
-1.452628926543078e-36
-6.314623649134052e-39
-1.622712701238454e-41
-2.246134348765704e-44
-1.274782985585424e-47
-3.925503544032341e-56
-7.990315456892129e-59
-1.046872650471274e-61
-8.455847119081115e-65
-4.020368293076227e-68
-1.061625679535399e-71
-1.267518279270921e-75
-4.862575239887889e-80
0
0
-6.341381937704636e-29
-2.439890276586e-30
-5.555584904125417e-32
-7.573130100895819e-34
-6.178831703034475e-36
-2.919499954425304e-38
-7.274942182190123e-41
-7.303501761107705e-44
-1.010099477599411e-52
-3.330716988357563e-55
-7.414574090475185e-58
-1.070156499153357e-60
-9.40898300318455e-64
-4.56037226032097e-67
-1.023539570845967e-70
-7.629688182758087e-75
-1.789784267699412e-79
0
0
-1.397246188052273e-29
-3.891226550747123e-31
-6.604286984863847e-33
-6.689607308581175e-35
-3.883248644884621e-37
-1.172699706533571e-39
-1.405560789842214e-42
-1.526613458738846e-49
-6.855052036605038e-52
-2.097306291595708e-54
-4.234668499498918e-57
-5.361509654069618e-60
-3.913676893519602e-63
-1.415248015629708e-66
-1.779077418054539e-70
-2.286986990529372e-77
0
0
0
-1.844777300339396e-30
-4.712727667872613e-32
-9.056245604407131e-34
-1.382804202709952e-35
-1.67271707886884e-37
-1.512051037271307e-39
-9.63522245886185e-42
-4.189248643532471e-44
-1.227597288345205e-46
-2.413693524247604e-49
-3.12982177323606e-52
-2.500273261611576e-55
-1.031646829036818e-58
-1.613044272481159e-62
-2.103542063784482e-70
0
0
0
0
-2.266566204736726e-31
-6.045102771872216e-33
-1.249965523710506e-34
-1.920891731650996e-36
-2.099127844783405e-38
-1.580829880365541e-40
-8.064043390321041e-43
-2.765767075271139e-45
-6.354887126725413e-48
-9.628673878515003e-51
-9.009570875664739e-54
-4.390482938359873e-57
-8.227750336549408e-61
-4.966240125675293e-67
-4.20438341586056e-71
0
0
0
0
-2.536815394686631e-32
-6.198916245422155e-34
-1.114231272659562e-35
-1.417191751447636e-37
-1.24337282589836e-39
-7.416271209677974e-42
-2.989125683382806e-44
-8.123887456778691e-47
-1.470504354555269e-49
-1.676680873835506e-52
-1.054360090218086e-55
-3.06854673776895e-59
-2.71433948420255e-63
-2.665660111287609e-69
-1.090624709596717e-74
0
0
0
0
-2.152760340087203e-33
-4.340777153716639e-35
-6.263776923391691e-37
-6.299410865138925e-39
-4.34953169071591e-41
-2.049164061772284e-43
-6.577555339967976e-46
-1.423178383120458e-48
-1.978085482729536e-51
-1.589798260337133e-54
-6.547821114521085e-58
-1.05322800056399e-61
-7.131861070439306e-68
-6.267482316321961e-73
0
0
0
0
0
-1.294102912822827e-34
-2.068712717824158e-36
-2.34246188622876e-38
-1.846043571133308e-40
-1.004970460577522e-42
-3.769665613370263e-45
-9.631744973375016e-48
-1.602568778693552e-50
-1.5854731195822e-53
-8.380995875628262e-57
-1.820699719515947e-60
-1.097906595349701e-66
-1.542953872061965e-71
0
0
0
0
0
0
-6.913439118808446e-36
-8.606102745706613e-38
-7.64064102663371e-40
-4.758957504729474e-42
-2.050104446837639e-44
-5.958891646016667e-47
-1.109290657972487e-49
-1.213065928875222e-52
-7.117343762452692e-56
-1.893215937453566e-59
-1.114374573848517e-65
-2.213063771319426e-70
-1.445674874152763e-77
0
0
0
0
0
0
-4.031716271553988e-37
-3.809463637187993e-39
-2.577392976023108e-41
-1.207500258155358e-43
-3.749230060320314e-46
-7.210649484473643e-49
-7.778993760612368e-52
-4.339513998270364e-55
-1.349397557630109e-58
-8.082242096900497e-65
-2.114416740963329e-69
-4.913747068437354e-76
-6.872321437394409e-83
0
0
0
0
0
0
-1.955924471651164e-38
-1.360495404244237e-40
-6.615540184660009e-43
-2.120020138961555e-45
-4.108615574147658e-48
-4.216379268567601e-51
-2.013052058019922e-54
-7.116704477787912e-58
-4.425234182224566e-64
-1.455804520219511e-68
-7.485753342712457e-75
-2.204317309826942e-81
0
0
0
0
0
0
0
-6.124845056125671e-40
-3.019912215403349e-42
-9.861229736657943e-45
-1.928097797316504e-47
-1.903421915264762e-50
-7.420788096992915e-54
-2.924148849002214e-57
-1.904991772812428e-63
-7.618086870656664e-68
-6.924491571911959e-74
-3.178231602253992e-80
0
0
0
0
0
0
0
0
-1.138509617512207e-41
-3.749280706598625e-44
-7.396367908667293e-47
-7.140060510166404e-50
-2.247737220411537e-53
-9.717715556738687e-57
-6.653229036400282e-63
-3.150110614613418e-67
-4.431381922224808e-73
-2.789786821588664e-79
-1.852881090245083e-93
0
0
0
0
0
0
0
0
-1.193552692481968e-43
-2.36073438558933e-46
-2.248565820965077e-49
-5.74198455154576e-53
-2.686853486085299e-56
-1.932327334343685e-62
-1.060187395244346e-66
-2.113845852555273e-72
-1.697575163914271e-78
-4.069834526803002e-92
0
0
0
0
0
0
0
0
0
-7.701107328835819e-46
-6.957166721581426e-49
-1.370288795063241e-52
-6.702133848992401e-56
-4.93317414176278e-62
-3.017138939112304e-66
-7.886058638368707e-72
-7.703952003058273e-78
-4.165931280740677e-91
0
0
0
0
0
0
0
0
0
0
-2.400927479716362e-48
-3.44631942671696e-52
-1.747427140893926e-55
-1.312073835742468e-61
-8.92429332853469e-66
-3.00249457763829e-71
-3.377967867739882e-77
-3.736294637678245e-90
0
0
0
0
0
0
0
0
0
0
0
-9.274792820137614e-52
-4.852470238525654e-55
-3.714558728218285e-61
-2.819229777380459e-65
-1.240815720519414e-70
-1.627053199834243e-76
-3.714089717900161e-89
0
0
0
0
0
0
0
0
0
0
0
0
-1.41059165183032e-54
-1.099605891458575e-60
-9.307620942633019e-65
-5.356310505226277e-70
-8.231607465720784e-76
-4.240849997253068e-88
0
0
0
0
0
0
0
0
0
0
0
0
0
-3.322311287262607e-60
-3.136805263198925e-64
-2.347760700999747e-69
-4.213460545759862e-75
-4.889664070868944e-87
0
0
0
0
0
0
0
0
0
0
0
0
0
0
-1.109184996898384e-63
-1.078197282490028e-68
-2.251459582381595e-74
-6.057118456164659e-86
0
0
0
0
0
0
0
0
0
0
0
0
0
0
0
-5.130778302556488e-68
-1.249530736240659e-73
-8.079923690603619e-85
0
0
0
0
0
0
0
0
0
0
0
0
0
0
0
0
-7.239633629277397e-73
-1.184431678663374e-83
0
0
0
0
0
0
0
0
0
0
0
0
0
0
0
0
0
-1.690232486854031e-82
0
0
0
0
0
0
0
0
0
0
0
0
0
0
0
0
0
0
0
0
0
0
0
0
0
0
0
0
0
0
0
0
0
0
0
0
0
0
0
0
0
0
0
0
0
0
0
0
0
0
0
0
0
0
0
0
0
0
0
0
0
0
0
0
0
0
0
0
0
0
0
0
0
0
0
0
0
0
0
0
0
0
0
0
0
0
0
0
0
0
0
0
0
0
0
0
0
0
0
0
0
0
0
0
0
0
0
0
0
0
0
0
0
0
0
0
0
0
0
0
0
0
0
0
0
0
0
0
0
0
0
0
0
0
0
0
0
0
0
0
0
0
0
0
0
0
0
0
0
0
0
0
0
0
0
0
0
0
0
0
0
0
0
0
0
0
0
0
0
0
0
0
0
0
0
0
0
0
0
0
0
0
0
0
0
0
0
0
0
0
0
0
0
0
0
0
0
0
0
0
0
0
0
0
0
0
0
0
0
0
0
0
0
0
0
0
0
0
0
0
0
0
0
0
0
0
0
0
0
0
0
0
0
0
0
0
0
0
0
0
0
0
0
0
0
0
0
0
0
0
0
0
0
0
0
0
0
0
0
0
0
0
0
0
0
0
0
0
0
0
0
0
0
0
0
0
0
0
0
0
0
0
0
0
0
0
0
0
0
0
0
0
0
0
0
0
0
0
0
0
0
0
0
0
0
0
0
0
0
0
0
0
0
0
0
0
0
0
0
0
0
0
0
0
0
0
0
0
0
0
0
0
0
0
0
0
0
0
0
0
0
0
0
0
0
0
0
0
0
0
0
0
0
0
0
0
0
0
0
0
)
;

boundaryField
{
    leftWall
    {
        type            zeroGradient;
    }
    rightWall
    {
        type            zeroGradient;
    }
    lowerWall
    {
        type            zeroGradient;
    }
    atmosphere
    {
        type            zeroGradient;
    }
    defaultFaces
    {
        type            empty;
    }
}


// ************************************************************************* //
