/*--------------------------------*- C++ -*----------------------------------*\
| =========                 |                                                 |
| \\      /  F ield         | OpenFOAM: The Open Source CFD Toolbox           |
|  \\    /   O peration     | Version:  2206                                  |
|   \\  /    A nd           | Website:  www.openfoam.com                      |
|    \\/     M anipulation  |                                                 |
\*---------------------------------------------------------------------------*/
FoamFile
{
    version     2.0;
    format      ascii;
    arch        "LSB;label=32;scalar=64";
    class       surfaceScalarField;
    location    "0.1";
    object      alphaPhi0.water;
}
// * * * * * * * * * * * * * * * * * * * * * * * * * * * * * * * * * * * * * //

dimensions      [0 3 -1 0 0 0 0];

oriented        oriented;

internalField   nonuniform List<scalar> 
4432
(
5.254286679722815e-06
-5.254286686353284e-06
1.05834666983074e-05
-5.329180032458759e-06
1.601138621995258e-05
-5.427919551403438e-06
2.159931159327181e-05
-5.587925418554401e-06
2.741035017100322e-05
-5.811038624475823e-06
3.351368290782665e-05
-6.103332764750808e-06
3.998930124353097e-05
-6.475618333681485e-06
4.693178339528869e-05
-6.94248213470937e-06
5.445960170940461e-05
-7.527818327459341e-06
6.270621938891284e-05
-8.246617785242503e-06
7.191889726950677e-05
-9.212678083745513e-06
8.241363906771276e-05
-1.049468123929782e-05
9.429469409313142e-05
-1.188092858474626e-05
0.0001067413073665489
-1.244646810071034e-05
0.0001178566020078055
-1.111517742886143e-05
0.0001259351356753489
-8.078432404213284e-06
0.0001308118053359046
-4.876651199223404e-06
0.0001347887226094979
-3.976779886479319e-06
0.0001415126278834505
-6.723872003724912e-06
6.214820213265633e-05
-1.0123204650827e-05
0
1.48530789895488e-06
-1.493226877194546e-25
-2.953064068225591e-25
-2.933211543449471e-25
5.273047476806192e-06
-1.052733419076471e-05
1.06075502992898e-05
-1.066368289077363e-05
1.604443767939211e-05
-1.086480698368891e-05
2.16409835407056e-05
-1.118447134607579e-05
2.745919891775027e-05
-1.162925406674527e-05
3.356802082960054e-05
-1.221215472239696e-05
4.00469826009227e-05
-1.295458012539699e-05
4.699010752143179e-05
-1.388560707169409e-05
5.451337726021303e-05
-1.505108812675804e-05
6.27553426326368e-05
-1.648858331911651e-05
7.191506926803782e-05
-1.837240496302844e-05
8.225246863674368e-05
-2.083200561724416e-05
9.395774662078291e-05
-2.358605667312949e-05
0.0001064970942269653
-2.498566463702426e-05
0.0001183068099639911
-2.292480242245343e-05
0.0001277065035881685
-1.747803020677517e-05
0.0001347131990927767
-1.188340284405098e-05
0.0001404459578435394
-9.709045631797128e-06
6.661894877938465e-05
-9.642769740943748e-06
-9.844902038760487e-07
-1.052558725806046e-08
-1.58926094288111e-25
-2.295506913552882e-24
-6.586963640606574e-25
-1.363275145928571e-24
-7.2906645761098e-25
5.254033435039102e-06
-1.578136767087658e-05
1.056350193036716e-05
-1.597315144051595e-05
1.597587829384422e-05
-1.627718341832737e-05
2.154615249149237e-05
-1.675474562829897e-05
2.733469374052267e-05
-1.741779539892568e-05
3.34092717064118e-05
-1.828673275387627e-05
3.984786394690344e-05
-1.939317241198902e-05
4.674236867464571e-05
-2.078011185079303e-05
5.420447829808348e-05
-2.251319785296219e-05
6.236924775867279e-05
-2.465335298212894e-05
7.140918273567096e-05
-2.741234020051051e-05
8.153981787891223e-05
-3.096254547644127e-05
9.300957639433191e-05
-3.505563022420964e-05
0.0001055341334542696
-3.751006659440181e-05
0.0001177571315640144
-3.51477112588114e-05
0.0001283069723967402
-2.80278406023266e-05
0.0001379866042374848
-2.156301989782519e-05
0.0001114601739342738
-1.710754444470918e-05
1.566495875963126e-06
-9.872221818227379e-07
3.199935758470235e-23
4.136040540011718e-24
-6.073148961536761e-24
-7.729494864581842e-24
-1.009248136780794e-24
-3.572519787480201e-24
-8.96649078471115e-25
5.222293130527814e-06
-2.100366086636104e-05
1.049564361591306e-05
-2.124650200036683e-05
1.587066634188946e-05
-2.165220623525447e-05
2.140039345584613e-05
-2.228447284662095e-05
2.714321918158705e-05
-2.316062122903036e-05
3.316491616586366e-05
-2.430842982915486e-05
3.954080315615842e-05
-2.576905948087188e-05
4.635918678892146e-05
-2.759849557474682e-05
5.37253613864085e-05
-2.987937259461888e-05
6.176813759906144e-05
-3.269612942888262e-05
7.064218439767247e-05
-3.62863872588041e-05
8.054267700234354e-05
-4.08629190781502e-05
9.178200788612902e-05
-4.62947368943507e-05
0.0001043072607993534
-5.003515315559116e-05
0.0001171398096001322
-4.798020410662857e-05
0.0001298492939784506
-4.073731620106949e-05
0.00013457205854918
-2.936943259055175e-05
1.576017715909382e-05
-1.085402109110058e-05
1.058791184067875e-22
-8.531080209635874e-09
-4.32807659094929e-24
-5.346277361540233e-24
-2.179192570861835e-24
-4.515698034684841e-24
-7.024111231719852e-25
-3.693775010275105e-24
-6.231706924927873e-25
5.177417482986767e-06
-2.618107842907213e-05
1.040196026001062e-05
-2.647104486747451e-05
1.572591015317183e-05
-2.697615623585386e-05
2.119971050894332e-05
-2.775827332494884e-05
2.687928659287027e-05
-2.884019743937629e-05
3.282753241774339e-05
-3.02566757738507e-05
3.911594640561542e-05
-3.205747358457593e-05
4.582771252977457e-05
-3.431026183328109e-05
5.305971793502227e-05
-3.711137818424545e-05
6.093338751665773e-05
-4.056979926894911e-05
6.95878619868397e-05
-4.494086197569391e-05
7.920200041920538e-05
-5.047691149514485e-05
9.014084506156214e-05
-5.723331625739918e-05
0.0001025806760241826
-6.247481781665372e-05
0.0001162165950368285
-6.16160954980316e-05
0.0001291747773540459
-5.369544605562417e-05
5.910123815391544e-05
-3.582591345117842e-05
8.53108020963651e-09
-2.696347396233655e-07
3.468453489247417e-24
-4.555019733200321e-25
-5.69131304039062e-24
-7.227752754338087e-24
-1.705306975340846e-24
-5.16115365076888e-24
-3.4393096178719e-25
-2.438868500926873e-24
-3.132435139773937e-25
5.116903919406062e-06
-3.129798245355335e-05
1.027845479421501e-05
-3.163259585504653e-05
1.553639242691917e-05
-3.223409399749746e-05
2.093767750797087e-05
-3.315955855066968e-05
2.653526847767155e-05
-3.443778856087244e-05
3.238852978721197e-05
-3.61099372346231e-05
3.856443975469219e-05
-3.823338370622604e-05
4.51402460157585e-05
-4.088606827014523e-05
5.220402295674445e-05
-4.417515534405758e-05
5.98683006399331e-05
-4.82340772248534e-05
6.825411526038178e-05
-5.332667681624568e-05
7.751229928973995e-05
-5.973491966899264e-05
8.804176252683766e-05
-6.776247632531341e-05
0.000100302721062256
-7.473561649803664e-05
0.0001148513950388669
-7.616476293887307e-05
0.0001025134977124977
-6.803131918498197e-05
2.696347396233636e-07
-1.139169125598576e-05
1.91182053679085e-23
1.409878546008056e-24
-4.322568251205494e-24
-3.065283016185947e-24
-1.61573063675575e-24
-3.191618532450566e-24
-8.45443524737707e-25
-3.502015736095944e-24
-1.365022780111825e-25
-1.183626691444104e-24
-1.31298025378813e-25
5.041139363501785e-06
-3.633912193311851e-05
1.012537456927264e-05
-3.671683118607224e-05
1.53021568843638e-05
-3.74108764562794e-05
2.061483229286898e-05
-3.847223412199257e-05
2.611319648365236e-05
-3.993615292785962e-05
3.185297116901719e-05
-4.184971210456046e-05
3.789665077508777e-05
-4.427706350792245e-05
4.431573439074756e-05
-4.730515210376957e-05
5.1191577945852e-05
-5.105099914765248e-05
5.862719823803664e-05
-5.566969779348684e-05
6.67142819689994e-05
-6.141376072787942e-05
7.554274609756721e-05
-6.856317661155111e-05
8.550429490127175e-05
-7.772369019857654e-05
9.738161668537842e-05
-8.661279452526255e-05
0.0001129088667830577
-9.169199439257536e-05
4.032762549823151e-05
-6.319846679032073e-05
0
-4.743673712421039e-07
-1.613387817698768e-25
-3.883995472277016e-26
-6.586033313495675e-25
-8.098423149285255e-25
-7.888962185842274e-25
-2.272683981835914e-24
-3.275142519678158e-25
-1.696482285652431e-24
-5.25036480690563e-26
-4.750504744475419e-25
-5.001672789448192e-26
4.958423913876002e-06
-4.129754601173423e-05
9.949910094800746e-06
-4.170831754107062e-05
1.503157409374374e-05
-4.249254064533038e-05
2.024162380955539e-05
-4.368228404836605e-05
2.562686851530686e-05
-4.53213978652385e-05
3.123959938118419e-05
-4.746244322365764e-05
3.713798742334329e-05
-5.017545182706192e-05
4.338806035169511e-05
-5.355522533481537e-05
5.00643772934491e-05
-5.772731641300294e-05
5.727229553978385e-05
-6.287761637749847e-05
6.505960688460018e-05
-6.920107228524207e-05
7.340649535223096e-05
-7.690982604452032e-05
8.259659810803012e-05
-8.691342074034327e-05
9.369943157053335e-05
-9.771544898523465e-05
0.0001001038404527255
-9.809527619543447e-05
9.946559254533474e-07
-3.717653654145259e-05
-2.214196103038062e-22
2.001885327862157e-22
-5.079555345121291e-25
-2.916868902273028e-25
-3.303020688310855e-25
-6.408675922944429e-25
-3.020139275710831e-25
-1.16354919729368e-24
-1.200990989295273e-25
-6.845893654773368e-25
-2.042178865851102e-26
-1.655083544008582e-25
-1.760772246674549e-26
-1.061192666302953e-51
1.504030941663233e-48
-4.49359774457311e-53
5.913842657419037e-50
-9.30852037242838e-56
1.447386955219789e-52
-9.035782541085886e-68
8.37144284930876e-56
-1.571120219233727e-70
2.443972892410798e-68
-1.528483234807461e-73
1.728440942194333e-72
-9.94278798902306e-77
-3.770159356202461e-78
-3.459986499129297e-80
-2.356289343000668e-81
-5.210311429890378e-84
-4.799681792347581e-85
0
0
0
0
0
0
0
0
0
0
0
0
0
0
0
0
0
0
0
-1.57973683302794e-48
1.532242545570415e-45
-1.177784136431329e-49
9.102202773436097e-47
-5.213443840874408e-52
3.538418987770885e-49
-5.817585190663787e-55
4.361977405161171e-52
-4.135955875383578e-67
1.418802369072612e-55
-5.944608526815964e-70
2.12805617577573e-69
-5.774224445105357e-73
-4.416050928607797e-74
-3.661672451614983e-76
-4.939277156411483e-77
-1.22649621184754e-79
-2.225559039056228e-80
-1.685283610330739e-83
-3.748904891789738e-84
0
0
0
0
0
0
0
0
0
0
0
0
0
0
0
0
0
-7.516509611884007e-46
5.782172769671411e-43
-8.945583395699361e-47
4.644041589831269e-44
-6.396373340906585e-49
2.563414260294687e-46
-1.525936751710717e-51
5.083387220081915e-49
-1.225863596478637e-54
3.454117948618415e-52
-7.097282669309625e-67
-2.193999572626696e-69
-9.89348419822797e-70
-1.193236750373439e-70
-8.982260735401009e-73
-1.859792180033393e-73
-5.272079175448301e-76
-1.456300509743162e-76
-1.561014478290855e-79
-5.266501117358803e-80
-1.888569696264651e-83
-7.513223721775791e-84
0
0
0
0
0
0
0
0
0
0
0
0
0
0
0
-1.771430495094169e-43
1.161881080444581e-40
-3.047418373753886e-44
1.09632857899006e-41
-3.176306720114414e-46
8.183111525605399e-44
-1.233435802075505e-48
2.326602451219904e-46
-2.126559477731806e-51
2.471992187172835e-49
-1.404820702967096e-54
-2.648933883291299e-56
-8.016672236666668e-67
-1.371436513248505e-67
-1.039934698672064e-69
-2.948180099401903e-70
-8.730944356113896e-73
-3.265595947108453e-73
-4.528534850133151e-76
-2.058547773382366e-76
-1.182025112486768e-79
-6.320180114272363e-80
-1.208503054992631e-83
-7.534621045885166e-84
0
0
0
0
0
0
0
0
0
0
0
0
0
-2.689189078542351e-41
1.463602175044913e-38
-5.483084109575683e-42
1.368031476533304e-39
-7.943232001653854e-44
1.351351463342682e-41
-4.508689375051279e-46
5.190810495966086e-44
-1.270266802981909e-48
7.536335071817779e-47
-1.834017974420237e-51
-8.641626842931235e-53
-1.180973218400683e-54
-2.71202421006956e-55
-6.364891302746076e-67
-2.325160153034937e-67
-7.607864322322e-70
-3.617284900302637e-70
-5.649015538376648e-73
-3.244755547833281e-73
-2.574264745205007e-76
-1.734016536261966e-76
-5.700663836526549e-80
-4.470244701258764e-80
-4.902556899934273e-84
-4.509432957958129e-84
0
0
0
0
0
0
0
0
0
0
0
-3.745276551207458e-39
1.249611377803377e-36
-5.870523590869739e-40
9.606124183497893e-38
-1.119152597540245e-41
1.236971975938257e-39
-8.773909646735304e-44
6.197651985523825e-42
-3.622899327658896e-46
1.120586871172268e-44
-8.722472115129909e-49
-7.895800950229895e-50
-1.218166602820417e-51
-3.629499685723426e-52
-7.248770362207812e-55
-3.288275423899767e-55
-3.689558330591245e-67
-2.144671278529933e-67
-3.891636976497959e-70
-2.714128615811953e-70
-2.531931388882267e-73
-2.063610691674645e-73
-9.771769777014485e-77
-9.254288504130325e-77
-1.822416974790367e-80
-2.02236139354652e-80
-1.256155139923928e-84
-1.668801339192202e-84
0
0
0
0
0
0
0
0
0
-5.496763704476687e-37
7.590959780511635e-35
-4.282489390960005e-38
3.824117103741033e-36
-9.55173861140022e-40
6.082084727785432e-38
-9.844906142617587e-42
3.944608560092069e-40
-5.645609216349412e-44
8.091434119787936e-43
-2.037161074333679e-46
-3.095322231497183e-47
-4.693130776881463e-49
-1.772614803775839e-49
-6.029572202258938e-52
-3.311964533057626e-52
-3.290805924942485e-55
-2.278120905912406e-55
-1.53565803991976e-67
-1.265734178110541e-67
-1.414786262738615e-70
-1.357523217379971e-70
-7.860230621269302e-74
-8.745425555020695e-74
-2.54412382961681e-77
-3.31298992808757e-77
-3.868502242713621e-81
-6.026796430328722e-81
-2.066090113281121e-85
-3.999483307106142e-85
0
0
0
0
0
0
0
-5.293223588983765e-35
3.459211488302467e-33
-2.236641650732718e-36
7.630798625099339e-35
-5.045327520014697e-38
1.266913633943093e-36
-6.510737636457496e-40
1.069325354008171e-38
-5.03490553812027e-42
1.95007845115378e-41
-2.588305834944168e-44
-6.085523846341224e-45
-8.839762794629913e-47
-4.157110694734145e-47
-1.870203333131956e-49
-1.221636240618832e-49
-2.189570046876846e-52
-1.771427168528025e-52
-1.061182283088684e-55
-1.013924657197393e-55
-4.720387751679308e-68
-5.228650354099668e-68
-3.697826609195147e-71
-4.738622912286328e-71
-1.695882336342175e-74
-2.540302531002805e-74
-4.431390255985665e-78
-7.935509991659848e-78
-5.177222250785459e-82
-1.151484016197281e-81
-2.038502431151739e-86
-6.003792542375682e-86
0
0
0
0
0
1.031439672308296e-05
-5.16119431348877e-05
2.072800739021624e-05
-5.212192862157833e-05
3.129986895681133e-05
-5.30644026490539e-05
4.212746654490174e-05
-5.450988210681436e-05
5.330575622581013e-05
-5.649968805629045e-05
6.49366838669216e-05
-5.909337141942537e-05
7.713313224727451e-05
-6.237190080848274e-05
9.00209690693603e-05
-6.644306280048637e-05
0.0001037486660979712
-7.145501411442888e-05
0.0001184500307558161
-7.757898173946307e-05
0.0001343895980243481
-8.514063998886633e-05
0.0001517959536780354
-9.431559995651845e-05
0.0001713149783608175
-0.0001064316219383964
0.0001937953345333303
-0.0001201954490565054
0.0001116626943842481
-0.0001013630428704073
0
-2.44211801938199e-06
2.801454129591958e-25
4.450498219511173e-26
-9.249157353187137e-26
-7.538467163607978e-26
-1.614905302104067e-25
-2.762882189773274e-25
-1.292526800694128e-25
-3.003385070462671e-25
-5.506885859440332e-26
-1.255559266647477e-25
-1.368450725403405e-26
-2.457585215485564e-26
-2.871227441820534e-27
-2.894810766124308e-27
9.833044848776318e-06
-6.144498838643042e-05
1.975310257057128e-05
-6.204198676151513e-05
2.98143053931847e-05
-6.312560591793699e-05
4.008910346301076e-05
-6.478468066258989e-05
5.065437259191927e-05
-6.706495771772817e-05
6.159067343639673e-05
-7.002967284336622e-05
7.298356641442985e-05
-7.376479440415359e-05
8.492441449831347e-05
-7.838391152274781e-05
9.751192878823311e-05
-8.404252903792696e-05
0.0001108480237286639
-9.091507732435709e-05
0.0001250685333948926
-9.936114993373502e-05
0.0001402743875197261
-0.0001095207358573102
0.0001572915096586684
-0.0001234479431105356
0.000168054373221255
-0.0001309580634991887
1.053092993109056e-05
-5.446545601077241e-05
-4.450498219518566e-26
-4.024979997826893e-23
-2.561668252474154e-39
-1.357301158821627e-39
-2.060324716818636e-24
-3.269057821863235e-24
-1.141174815304505e-25
-2.681564028279257e-25
-2.874236323767456e-26
-6.81121960234202e-26
-1.013441061411439e-26
-1.955545625008196e-26
-2.466347597928893e-27
-3.560871638590073e-27
-4.929271877616124e-28
-4.543469915847861e-28
9.293738901381681e-06
-7.073872774365658e-05
1.865594875305023e-05
-7.14041970845154e-05
2.813237771020466e-05
-7.260203537835913e-05
3.777850456662572e-05
-7.443080806860125e-05
4.765194044023687e-05
-7.693839419488157e-05
5.781064394332179e-05
-8.018837700028272e-05
6.831201997328182e-05
-8.426617112114289e-05
7.921150635260002e-05
-8.928339859707216e-05
9.056006936654713e-05
-9.539109272644087e-05
0.0001024007041926933
-0.000102755712822032
0.0001147653577946064
-0.0001117258038030377
0.0001276231328167701
-0.0001223776661743401
0.0001417961356054344
-0.0001376201626022192
9.800432688283e-05
-0.0001350080928041471
0
-1.677431417927261e-05
2.467890423503862e-24
4.805408514797573e-27
-1.144770317860155e-24
-1.463291569559395e-24
-2.39021739978547e-25
-5.89842653923864e-25
-2.939346164421022e-26
-8.20877278661937e-26
-7.646927319845139e-27
-1.854149258949538e-26
-2.008384980373343e-27
-3.848687836956423e-27
-4.549340057954642e-28
-6.679175279004002e-28
-9.620132821377182e-29
-8.913402436349988e-29
8.694690547994873e-06
-7.94334187932284e-05
1.744241530298562e-05
-8.015192235730272e-05
2.627538729007252e-05
-8.143500791791599e-05
3.52333003773619e-05
-8.338872175887711e-05
4.435515655922711e-05
-8.606025103710751e-05
5.367695604732072e-05
-8.951017719784867e-05
6.32293727857501e-05
-9.381858859465877e-05
7.303444290170195e-05
-9.908846944445336e-05
8.309959090062762e-05
-0.0001054562414235237
9.341182753819749e-05
-0.0001130679501548201
0.0001039110224308901
-0.0001222249988898911
0.0001144712504395524
-0.0001329369421855567
0.0001258396520523859
-0.0001489877418187735
4.053744490671188e-05
-0.0001146685718559575
0
-1.191494060316629e-06
-3.752538352748748e-24
-9.947828500309783e-25
-4.812546517068465e-25
-1.159794442566615e-24
-7.04094798523537e-26
-2.366370570519339e-25
-1.421263622236162e-26
-4.435795010320763e-26
-3.458655835538504e-27
-8.766924242473151e-27
-8.504985333285086e-28
-1.693569397958594e-27
-1.886466273131947e-28
-2.889877964514837e-28
-4.272668538864053e-29
-3.716147049898401e-29
8.05198365893969e-06
-8.748540298985123e-05
1.614273628132545e-05
-8.824267553425032e-05
2.429065465438222e-05
-8.958292688147036e-05
3.252052608966159e-05
-9.161859383679147e-05
4.085426659677803e-05
-9.439399224505302e-05
4.930814507412634e-05
-9.796405642168976e-05
5.788961899476712e-05
-0.0001024000632787784
6.659297896181117e-05
-0.0001077918301607492
7.539129846248006e-05
-0.0001142545616299819
8.423095239977344e-05
-0.0001219076047903243
9.298704573643201e-05
-0.0001309810923368421
0.0001014919277017348
-0.0001414407874919776
0.0001093758863536339
-0.000156870776191121
8.264336168331915e-06
-7.783046894323439e-05
0
-5.623329342246476e-09
3.152069330109551e-40
1.000573277702891e-40
-1.942459364292441e-25
-7.122606273352109e-25
-3.708101485995576e-26
-1.502682018575212e-25
-8.90936306920888e-27
-3.017827175465416e-26
-2.198711135192201e-27
-5.916947801283308e-27
-4.766378298719163e-28
-1.011530290100806e-27
-8.877949158667487e-29
-1.480553444159718e-28
-1.839567664338258e-29
-1.400753391485513e-29
7.379966315763439e-06
-9.486536985912611e-05
1.478550611802884e-05
-9.564821590800017e-05
2.222239010821768e-05
-9.701981147811775e-05
2.970197284698355e-05
-9.909817723294816e-05
3.723124312065116e-05
-0.0001019232632319007
4.480988084691237e-05
-0.000105542694899676
5.242677527599771e-05
-0.0001100169584646504
6.005559405814978e-05
-0.000115420649671072
6.764642184468007e-05
-0.0001218453900844483
7.512459891620585e-05
-0.0001293857825044472
8.233915791321373e-05
-0.0001381956512519695
8.91702603572394e-05
-0.0001482707918294186
8.163661632544169e-05
-0.0001554107961805638
5.623329342247711e-09
-4.813753710354947e-05
5.877471754111438e-39
-1.911999089733723e-25
-3.759528307826334e-41
6.422232625744143e-39
-5.892506235123127e-26
-2.807503463679008e-25
-1.890594668278874e-26
-8.662358377226368e-26
-4.948973267516252e-27
-1.825112557444678e-26
-1.056476520347354e-27
-3.089130008512713e-27
-1.876907455396772e-28
-4.379286825253645e-28
-2.786768145735851e-29
-5.240573474504581e-29
-5.242518286541831e-30
-3.41439117919791e-30
6.691638997442596e-06
-0.0001015570093699389
1.339699222057805e-05
-0.0001023535696644365
2.01109443761961e-05
-0.0001037337641974727
2.683331085173086e-05
-0.0001058205443159842
3.355867084103208e-05
-0.000108648623875657
4.027357751497936e-05
-0.0001122576022514666
4.695314079252504e-05
-0.0001166965224008946
5.355721315911172e-05
-0.000122024722635652
6.00226362816311e-05
-0.0001283108137041233
6.626711089737842e-05
-0.0001356302575287033
7.21284233198029e-05
-0.0001440569630953992
7.753275657933282e-05
-0.0001536739813479805
4.948774941797122e-05
-0.0001518024176634919
0
-2.735305470298418e-05
2.222245811240635e-25
4.032016612013536e-27
-5.122753833767226e-26
-2.386106425723861e-25
-3.075255982004748e-26
-1.855632649705397e-25
-8.89482553551347e-27
-4.649024597801206e-26
-1.933181520622327e-27
-7.98173943398826e-27
-3.39688718634236e-28
-1.112446506141292e-27
-4.92857835834081e-29
-1.301641451557901e-28
-5.916979473923496e-30
-1.283067675106747e-29
-1.054976348401286e-30
-5.81831059202063e-31
5.998432023846037e-06
-0.0001075554416990848
1.200028692990318e-05
-0.0001083554248969054
1.799149651861333e-05
-0.0001097249741292733
2.39623926815014e-05
-0.0001117914408442239
2.989771405717275e-05
-0.0001145839456360427
3.57742042077486e-05
-0.0001181340927697073
4.155744379571508e-05
-0.0001224797622753071
4.719909236759567e-05
-0.0001276663713477752
5.263030763360081e-05
-0.0001337420288973345
5.777075901886928e-05
-0.0001407707085791485
6.245914321284965e-05
-0.000148745345434699
6.668270755127612e-05
-0.0001578963674059647
3.161219936648154e-05
-0.0001411588691701063
-8.470329472543003e-22
-1.388158688386348e-05
3.130765093788025e-24
2.783438359856771e-23
-4.574759336419519e-26
-3.266059976431569e-25
-1.232026105212483e-26
-9.82595129221889e-26
-2.793790190979261e-27
-1.749021449261824e-26
-5.070724542092801e-28
-2.44124351598561e-27
-7.498113525228916e-29
-2.845226739529114e-28
-9.132620459562646e-30
-2.80728636071109e-29
-9.188060132481133e-31
-2.344779715404973e-30
-1.647428421159566e-31
-7.601184385349836e-32
5.310044442875873e-06
-0.0001128654857492031
1.061490963764998e-05
-0.0001136602897133243
1.589351124810003e-05
-0.0001150035753416064
2.112871015378715e-05
-0.0001170266393180117
2.629780024240873e-05
-0.0001197530352436686
3.137059412992143e-05
-0.0001232068860691536
3.630644511143657e-05
-0.0001274156124448446
4.105279511301711e-05
-0.0001324127201975727
4.554025424482197e-05
-0.0001382294864086754
4.969592626790072e-05
-0.0001449263783395185
5.336601830154945e-05
-0.0001524154326242072
5.659844354739031e-05
-0.0001611275865962995
1.82289406686762e-05
-0.000127539381939659
4.235164736271502e-22
-5.843972237856084e-06
4.147228905581173e-26
8.895236913842746e-26
-8.847690709153701e-27
-1.370967989810118e-25
-2.676719547864857e-27
-3.160748747321662e-26
-5.651132552195037e-28
-4.572078392295933e-27
-9.207292326235503e-29
-5.438831167191917e-28
-1.198178442058971e-29
-5.476662238035033e-29
-1.273329943729273e-30
-4.698875647525978e-30
-1.116927955621756e-31
-3.436250408491563e-31
-2.131412269760983e-32
-8.089283072749853e-33
4.634406922091327e-06
-0.0001174998903124489
9.256721126591334e-06
-0.0001182826015334164
1.384068186647984e-05
-0.0001195875335807622
1.836355090326193e-05
-0.0001215495056746178
2.279728407666155e-05
-0.0001241867655160972
2.710708095579949e-05
-0.0001275166797281582
3.124827764448293e-05
-0.0001315568053419766
3.516627657704219e-05
-0.0001363307145389247
3.879398579199293e-05
-0.0001418571899630362
4.206738999157171e-05
-0.000148199775435995
4.484393650169275e-05
-0.0001551919673500455
4.722473400667341e-05
-0.0001635071520717487
9.070553499880498e-06
-0.0001116686474423711
0
-1.685180544392816e-06
2.264687352936356e-27
5.949885627652512e-26
-1.892459809632683e-28
-8.062716876035767e-26
-4.169397057378996e-28
-1.013894511692907e-26
-1.045858159001149e-28
-1.229314421005618e-27
-1.650881699326942e-29
-1.276555426525924e-28
-1.959179016665087e-30
-1.131013072963902e-29
-1.858921092043885e-31
-8.557194655367936e-31
-1.441090625105531e-32
-5.516109263093997e-32
-3.000733025100361e-33
-9.13674781082527e-34
3.977767503328149e-06
-0.0001214776497878748
7.938070922873481e-06
-0.0001222428967991571
1.185124259321985e-05
-0.0001235006967893587
1.569064968573462e-05
-0.0001253889038367122
1.942471959235835e-05
-0.0001279208259514225
2.301584408836263e-05
-0.0001311077940697015
2.64166508921524e-05
-0.0001349576007328544
2.957116842538814e-05
-0.0001394852189567168
3.241548938635293e-05
-0.0001447014955514912
3.489122363606707e-05
-0.0001506754913225122
3.687080542955066e-05
-0.0001571715218502008
3.850377189142015e-05
-0.0001651388601253493
3.357700309353912e-06
-9.229273425314994e-05
-4.400790620370144e-26
-1.777770603725251e-08
1.549095007282368e-26
0
5.389024551687655e-28
-8.323474529175285e-26
2.922575318913185e-30
-7.112308330344365e-27
-3.001783500371881e-29
-6.167906341099367e-28
-4.987525140904496e-30
-5.486621076568596e-29
-5.277601548231231e-31
-4.096510983907368e-30
-4.254209079605743e-32
-2.576759658029811e-31
-2.735127569636764e-33
-1.364099160997386e-32
-6.021924743275033e-34
-1.414141246817844e-34
3.344916701814225e-06
-0.0001248225460249597
6.66837761516856e-06
-0.0001255663368863436
9.939094569408047e-06
-0.0001267713922292399
1.312809517676191e-05
-0.0001285778819658195
1.620176849820106e-05
-0.0001309944758067179
1.912099292469378e-05
-0.0001340269939309215
2.183646163702415e-05
-0.0001376730425338054
2.429068729358755e-05
-0.0001419394146292504
2.642216959280087e-05
-0.0001468329439856949
2.817044173467975e-05
-0.0001524237244696052
2.942263129374359e-05
-0.0001584236581905632
3.031760535414279e-05
-0.0001660325557101202
1.634304036217055e-07
-6.76736446756695e-05
1.02355104074317e-25
-7.120302620123664e-12
1.322984028651203e-26
-2.472961229246299e-25
4.5994318078748e-28
-6.656063073680292e-26
7.684280994421927e-30
-5.231032362772687e-27
-8.658255892525767e-30
-3.686673793967512e-28
-1.48623042664102e-30
-2.588876825259357e-29
-1.356688680601865e-31
-1.560028504323695e-30
-9.007306460959974e-33
-7.835250285915808e-32
-4.670391856225731e-34
-3.280446117361851e-33
-1.136759268136928e-34
-1.923137114652827e-35
2.739586853210914e-06
-0.0001275620849321206
5.454846547810468e-06
-0.0001282815478958542
8.114931220252843e-06
-0.0001294314269406176
1.069009270042512e-05
-0.0001311529917638203
1.314591052118081e-05
-0.000133450240457023
1.54425638517683e-05
-0.0001363235926631391
1.752941542283612e-05
-0.0001397598353167421
1.934699603535699e-05
-0.0001437569310342705
2.083124265003687e-05
-0.0001483171196134388
2.191447840575277e-05
-0.0001535068818959766
2.251184293434194e-05
-0.0001590209194926823
2.272100499949519e-05
-0.0001662404062848806
7.120302620724865e-12
-4.534178645419343e-05
3.714067312848508e-26
1.938242138248098e-26
3.16432976804689e-27
-2.003733299467214e-25
1.265312611604937e-28
-3.617114794149917e-26
2.296657828095868e-30
-2.731597654677415e-27
-1.588217724784424e-30
-1.655759662552865e-28
-2.6528413376854e-31
-9.145490831286119e-30
-2.036921273484291e-32
-4.298502995931055e-31
-1.115003980021583e-33
-1.683287256187304e-32
-4.720707428925181e-35
-5.494705857126382e-34
-1.483053482760615e-35
-1.573201941290466e-36
2.16478871563787e-06
-0.0001297267750303625
4.303089675655906e-06
-0.0001304197490604537
6.38712130231717e-06
-0.000131515356888351
8.388052043834504e-06
-0.0001331538184477585
1.027211282563602e-05
-0.0001353341957415579
1.200000093377447e-05
-0.0001380513744258567
1.35224603181019e-05
-0.0001412821822424453
1.477899481308407e-05
-0.0001450133451228389
1.569089402854422e-05
-0.000149228890064301
1.61397297875871e-05
-0.0001539555805368052
1.607817864834458e-05
-0.0001589591973558756
1.538633111144714e-05
-0.000165547233453373
0
-3.385005978706841e-05
-1.613382334843296e-29
-7.307205749242406e-26
-2.412981317638994e-28
-8.342450176386328e-26
-7.525948829923147e-29
-1.434031207343433e-26
-2.81891796004258e-30
-1.078567007334099e-27
-2.790158806561267e-32
-5.623331085861931e-29
-5.72633382475122e-33
-2.352468837985046e-30
-6.663337422787824e-34
-8.217784020633164e-32
-4.239116692526253e-35
-2.431078854132026e-33
-1.807599922555274e-36
-6.076812575349372e-35
-1.264769158860262e-36
-5.560995473976882e-38
1.622037908535646e-06
-0.0001313486456057684
3.215406316884875e-06
-0.0001320129489206499
4.758869969944773e-06
-0.0001330586501008545
6.226099230849646e-06
-0.0001346208752719221
7.586225481491109e-06
-0.0001366941495906551
8.803037448630258e-06
-0.0001392680152967091
9.834862299728469e-06
-0.0001423138293572618
1.062458945742038e-05
-0.000145802886138018
1.108362360657437e-05
-0.0001496877302807427
1.106070615234862e-05
-0.0001539324709724502
1.04463673772269e-05
-0.0001583446246167271
7.568973450773449e-06
-0.0001626686273862871
-2.117582368135751e-22
-3.307404478848438e-05
3.920732925698221e-25
7.580272802776349e-26
-2.950908841221554e-27
-2.227426639320547e-26
-2.935063672925241e-28
-4.862548677380643e-27
-6.293155784974864e-30
-3.739053507600624e-28
4.745435854852446e-33
-1.545746417998974e-29
3.362865855310768e-34
-4.560032337919671e-31
9.539876259199884e-36
-1.205382585481722e-32
1.77698683134946e-37
-2.677313302801451e-34
2.295089431931896e-39
-4.999262657953043e-36
-7.739637952796877e-38
4.301675415659344e-41
1.119364898145134e-06
-0.0001324678021698263
2.20585133653464e-06
-0.0001330992267790873
3.249785558438466e-06
-0.000134102375408012
4.230030869722547e-06
-0.00013560091213287
5.122000710785865e-06
-0.0001375859129648627
5.898786512727247e-06
-0.0001400445966894722
6.532798602132942e-06
-0.0001429476331452963
6.991524353660766e-06
-0.0001462613981029753
7.214072137554252e-06
-0.0001499100604269991
7.143998264063044e-06
-0.0001538621924749047
6.753704354542647e-06
-0.0001579540689125654
4.14772775174184e-06
-0.0001315853363085407
-1.069820992659787e-07
-3.427903807684569e-05
-2.290795129911175e-25
-1.069820992659787e-07
-6.003123524230236e-26
-1.9463905942882e-25
-3.142592072590962e-27
-2.942187154587067e-26
-1.747014211831235e-29
-8.763480839452695e-28
2.369091828924493e-33
-6.662106876179205e-30
9.611195769087781e-35
-6.998269477973316e-32
2.064309061080981e-36