/*--------------------------------*- C++ -*----------------------------------*\
| =========                 |                                                 |
| \\      /  F ield         | OpenFOAM: The Open Source CFD Toolbox           |
|  \\    /   O peration     | Version:  2206                                  |
|   \\  /    A nd           | Website:  www.openfoam.com                      |
|    \\/     M anipulation  |                                                 |
\*---------------------------------------------------------------------------*/
FoamFile
{
    version     2.0;
    format      ascii;
    arch        "LSB;label=32;scalar=64";
    class       volScalarField;
    location    "0.1";
    object      p;
}
// * * * * * * * * * * * * * * * * * * * * * * * * * * * * * * * * * * * * * //

dimensions      [1 -1 -2 0 0 0 0];

internalField   nonuniform List<scalar> 
2268
(
100527.0367342719
100521.1215231887
100506.7064066564
100483.7898649773
100452.1799595258
100411.4303581889
100360.9346507174
100299.9213658319
100227.4224369188
100142.2134682789
100042.7392130002
99927.24814161123
99792.19645087243
99631.47453165844
99440.51273828722
99225.86230492398
99010.16839771232
98820.68664074109
98673.48919744886
98604.13582207169
98561.21850505163
98557.82217764894
98558.22469420958
100467.8076709825
100461.8786528642
100447.4023780067
100424.4184763443
100392.7166060803
100351.8379431476
100301.1625315727
100239.8971539599
100167.0429465367
100081.3231384564
99981.10277734227
99864.54396453407
99728.18115527497
99566.29160556037
99374.48874452997
99158.56322662499
98940.64033243414
98748.61876610208
98614.87119527563
98561.44697778797
98556.48374985767
98557.52157417868
98558.006854245
100408.7682760772
100402.8337685162
100388.2930188863
100365.2375747489
100333.4321195214
100292.4000973089
100241.5023274013
100179.9147294873
100106.5965758359
100020.1983209958
99918.99513305597
99801.08189199193
99663.05792058837
99499.37256435347
99305.24713730386
99084.85910199721
98859.7192904578
98667.09899943064
98565.80614990037
98556.42168784032
98556.3249489687
98557.17154331182
98557.60440920945
100349.9205469656
100343.9661083853
100329.3421099318
100306.1901561838
100274.2455417359
100233.0084474399
100181.8124233475
100119.7905786072
100045.8449741439
99958.5247911763
99855.98737938683
99736.23358483338
99595.82582372503
99429.01317834406
99229.69946151511
98998.17122756611
98758.7739031489
98592.44770630183
98556.2451320832
98555.80401339351
98556.21927650702
98556.80146461632
98557.14525316951
100291.3544897671
100285.3637794221
100270.6440963098
100247.3787300725
100215.2714101055
100173.7957546316
100122.2521314564
100059.7224377309
99985.04146817015
99896.63439252277
99792.52091459482
99670.5759767627
99527.17753933171
99355.79235853291
99147.20537486911
98894.44188013156
98653.49055187828
98559.16270149693
98555.39069915371
98555.62514402674
98556.04470787074
98556.42341051817
98556.6842269531
100233.1488393565
100227.1242126838
100212.3199934742
100188.9493130205
100156.6849052059
100114.9726841335
100063.0765453052
100000.0226745909
99924.57326682541
99835.01171021456
99729.22548817367
99604.9572619414
99458.18964654484
99280.50306976451
99055.82354068418
98772.69500352464
98560.0229350158
98555.28687925133
98555.18384978868
98555.50332479435
98555.78287985381
98556.04837362521
98556.22893229914
100174.8640917711
100168.8142396571
100153.938055694
100130.4638150562
100098.0353571943
100056.0685891471
100003.7862881238
99940.15297395222
99863.84936035506
99772.993281257
99665.35785260107
99538.61216381422
99388.11658959501
99201.83157953434
98952.96826431005
98657.0144433074
98557.54975574018
98555.01983189053
98555.02690477564
98555.29687145798
98555.50456200352
98555.69179283523
98555.77027133568
100115.4616313884
100109.2902515188
100094.2430600488
100070.5291678339
100037.7647752348
99995.32683333626
99942.38274750244
99877.8173282162
99800.20254707108
99707.4577654951
99597.18862930714
99466.98207918956
99311.20712587795
99112.33990366121
98837.05142858242
98560.55436499541
98555.06214001963
98554.73243527832
98554.8809917599
98555.07650751091
98555.24400482517
98555.35671944595
98555.28922379389
98554.91937582582
98554.9380033807
98554.96028201922
98554.9812572337
98554.99943357804
98555.01481393451
98555.02782923741
98555.03882142209
98555.04812386281
98555.05600776449
98555.06268951068
98555.06833842264
98555.07308432387
98555.07702506862
98555.0802333521
98555.08276233361
98555.08465003033
98555.08592246046
98555.08659041613
98554.8577102538
98554.87849056744
98554.90186660408
98554.92340475041
98554.94177293258
98554.95716409454
98554.97013793937
98554.98107092512
98554.99031988697
98554.99816058749
98555.00480931276
98555.01043382379
98555.01516210384
98555.01909033778
98555.02228987197
98555.0248128502
98555.02669660097
98555.02796714628
98555.02863671769
98554.79207810892
98554.81747786143
98554.84305727544
98554.86566982124
98554.88436360263
98554.89974477088
98554.91260034579
98554.9234014644
98554.9325359076
98554.94028612194
98554.94686707351
98554.95244251385
98554.95713610289
98554.96104026317
98554.96422337797
98554.96673539384
98554.96861209946
98554.96987861085
98554.97054583818
98554.72202250344
98554.75497142108
98554.78399170403
98554.80816725332
98554.82725706566
98554.84259938299
98554.85521736773
98554.86580531047
98554.87476100173
98554.88237262974
98554.88885128591
98554.89435359128
98554.8989960769
98554.90286518548
98554.90602467991
98554.90852111664
98554.91038789215
98554.91164855026
98554.91231284849
98554.64686556537
98554.69091485121
98554.72490572535
98554.75105357131
98554.770505882
98554.78565931611
98554.79797616519
98554.80826979165
98554.8169838367
98554.82441122484
98554.83075549202
98554.83616261356
98554.8407391019
98554.84456326428
98554.84769268375
98554.85016941727
98554.85202369122
98554.85327694644
98554.85393779498
98554.56465444721
98554.62548344713
98554.66627845485
98554.69452841103
98554.71416750787
98554.72896252718
98554.74086127026
98554.7507757141
98554.75918754288
98554.76638883537
98554.77257024996
98554.77786302981
98554.7823607809
98554.78613165108
98554.78922562719
98554.79167927729
98554.79351897765
98554.79476361397
98554.79542048206
98554.47031523398
98554.55941116299
98554.60892529755
98554.63882321055
98554.65826809415
98554.67249752996
98554.68384621934
98554.69329604022
98554.70134978242
98554.70828878086
98554.7142837041
98554.71944663668
98554.72385557393
98554.72756670459
98554.73062119434
98554.7330492863
98554.73487294401
98554.73610812191
98554.73676057682
98554.36278652304
98554.49328351906
98554.55324608501
98554.58411088458
98554.60278978052
98554.61621034725
98554.62688206772
98554.6357902272
98554.64344041015
98554.65008955325
98554.65588075768
98554.66090303451
98554.66521646912
98554.66886382199
98554.67187648047
98554.67427772522
98554.6760846894
98554.67731012123
98554.6779579717
100022.9487971355
100016.4998527077
100001.1902913565
99977.08212790775
99943.77354698311
99900.58494484553
99846.59605882496
99780.5694208491
99700.8970453158
99605.25757775425
99490.93395181435
99355.09980873218
99189.15137902262
98965.43671399522
98681.90788257346
98557.39235531713
98554.6404985788
98554.47539841768
98554.64964673827
98554.76626424566
98554.86951682618
98554.87008529245
98554.40423714016
99902.59779485906
99896.03785191268
99880.66787132609
99856.48252134564
99823.03328294263
99779.59697828309
99725.18843983162
99658.47424327972
99577.73178962915
99480.3855395307
99363.60092121134
99224.33528834289
99049.12832785973
98800.41042760661
98563.1831459822
98553.46757934913
98553.87416124507
98554.11483517011
98554.29842360855
98554.43218902979
98554.52722044852
98554.55416380671
98554.47657955643
99785.00449375226
99778.31765859378
99762.90829637775
99738.73552458255
99705.31197535763
99661.88648839378
99607.43832364181
99540.58371998979
99459.56609775808
99361.64288690555
99244.18552273232
99104.11528230553
98922.36692266543
98675.57753637439
98554.04818996959
98553.37708324293
98553.58649344239
98553.84324983465
98554.02066867318
98554.16938291352
98554.28494666271
98554.36450362908
98554.40875959715
99670.7906564774
99664.05098005802
99648.75840488033
99624.84455678596
99591.80550961738
99548.8896423344
99495.08269671744
99429.01445899696
99348.99670097242
99252.25517731246
99136.729877149
98999.1336939341
98814.34947734937
98594.02261847636
98555.30474666459
98553.49186782543
98553.45733153626
98553.63915927503
98553.80055750992
98553.94840099747
98554.07050387302
98554.15908370558
98554.21328487167
99560.45204401866
99553.74486873319
99538.74727466339
99515.36901421381
99483.11165753055
99441.25105758122
99388.81989067949
99324.52115250757
99246.82526899222
99153.0543644217
99042.04677802886
98910.02449254134
98728.23450899143
98556.13847011491
98552.4004096923
98553.05431948713
98553.25997139563
98553.44232425556
98553.60567630517
98553.74856672877
98553.86543047579
98553.95294282492
98554.01256334301
99454.39028500783
99447.81050865351
99433.29796036817
99410.74764110552
99379.68603670169
99339.44063922075
99289.12420157203
99227.55867335467
99153.43175729454
99064.23968474548
98959.86866250886
98835.61517246508
98665.05842627013
98552.77073514801
98552.42350642959
98552.86372730782
98553.10684918585
98553.28100757678
98553.43360342116
98553.56538773827
98553.67441889078
98553.76010757276
98553.82367134315
99352.88993189031
99346.53587628614
99332.69731806798
99311.26232207027
99281.79756566085
99243.70000873932
99196.18497452751
99138.22128473905
99068.73581098898
98985.42358053393
98889.16413790754
98773.74425998246
98619.72332004995
98553.00353145806
98552.69033852092
98552.84328620738
98553.01084325388
98553.14956132679
98553.28071682152
98553.39762286893
98553.49742980022
98553.57915752931
98553.64291704554
99256.10566095455
99250.07291093683
99237.08519003294
99217.03104030286
99189.52788115467
99154.05312960349
99109.93673732568
99056.30755965292
98992.32891467029
98915.9115192223
98828.82559629224
98723.17260512657
98588.88298451896
98553.01532991951
98552.69490095468
98552.79501146273
98552.91824715711
98553.02804571007
98553.13883980925
98553.24106043922
98553.3311243981
98553.4074722779
98553.4695283108
99164.05364358255
99158.42991437763
99146.44927765573
99128.00701032511
99102.7771738555
99070.32234818564
99030.0903826945
98981.37226980961
98923.54864097168
98854.76637049054
98777.51947513741
98682.2616178991
98569.47540850438
98552.96489898641
98552.60804945277
98552.71949854337
98552.81645895937
98552.90663230939
98553.00177288173
98553.09139625855
98553.17247679109
98553.24330833454
98553.30302634461
99076.61331320528
99071.47460922548
99060.63100849831
99043.98941074185
99021.28237482547
98992.15713107648
98956.17586822224
98912.78507528403
98861.55235659995
98800.88995531383
98733.80432049945
98649.4228913666
98558.87876530172
98552.90048311885
98552.50230094172
98552.62010450444
98552.70702159189
98552.7821366447
98552.86608368121
98552.94569039349
98553.01913994881
98553.08499923546
98553.14227718656
98993.55885611837
98988.96731271828
98979.36194902338
98964.66518264299
98944.6670847983
98919.09548979663
98887.61888728625
98849.82460511815
98805.42899026624
98753.1415510998
98696.17718451491
98622.73179068659
98553.71246276397
98552.25278916128
98552.43386946146
98552.48754184526
98552.58686914411
98552.65413050029
98552.73049943346
98552.80215059314
98552.86937691024
98552.93103530406
98552.98607017507
98914.6222177485
98910.62479611812
98902.32878113753
98889.67526261606
98872.50892485681
98850.63229787481
98823.81011485947
98791.74958857456
98754.27901642711
98710.4222559472
98663.1897550787
98600.61237988168
98552.32757058275
98551.96690398289
98552.32763637508
98552.37244937151
98552.46559401539
98552.52822774398
98552.595328991
98552.65988026354
98552.72198048932
98552.78022404602
98552.8333897164
98839.42776337842
98836.05394014895
98829.10391431751
98818.53995598198
98804.25680158191
98786.12541762747
98763.99748586635
98737.68059722282
98707.10461734465
98671.60582007434
98633.61746552402
98582.12461515878
98552.21310974477
98552.13238586085
98552.29138486613
98552.28973202054
98552.3543730954
98552.40290039468
98552.45983728213
98552.51798493887
98552.57593010527
98552.63159339041
98552.68340252925
98766.74253874706
98763.99796075761
98758.38218042169
98749.88009996872
98738.43108687762
98723.96934655047
98706.42484464841
98685.69305063626
98661.79496565057
98634.37600645196
98605.25981822076
98566.90360911723
98552.16203668341
98552.19064054148
98552.24539076762
98552.20299188855
98552.23982771664
98552.27229959474
98552.32134893158
98552.37479171663
98552.43006120672
98552.48426753745
98552.53541282707
98695.6576467532
98693.5569876173
98689.28421958115
98682.8584162042
98674.2669872129
98663.51677869886
98650.62461160182
98635.57593130198
98618.44985181971
98599.03457303857
98578.71458357814
98555.17106716536
98552.10376819358
98552.22817269992
98552.16533695372
98552.09756347121
98552.10142505908
98552.12948132577
98552.1748057396
98552.22768449906
98552.28311146029
98552.33756216076
98552.38898403686
98631.47791332072
98630.12035821041
98627.36507230092
98623.29115315001
98617.9341311508
98611.40060608233
98603.83044033556
98595.34967525305
98586.13352254787
98575.9539253546
98565.11321761922
98551.8052558003
98552.06609515214
98552.26636623983
98552.02827056879
98551.93054177414
98551.93161190284
98551.96817318838
98552.01853973887
98552.07604477654
98552.13474612279
98552.19128666399
98552.24400866833
98584.23784394888
98583.75085023942
98582.75233832227
98581.36508800376
98579.64598940276
98577.74624448216
98575.84813384246
98574.16537418585
98573.41403842733
98574.85631700064
98576.8786767156
98568.28998210309
98551.58629074233
98552.17439864251
98551.74869933049
98551.66510641627
98551.71629307022
98551.78427260736
98551.85157892616
98551.92025176491
98551.98551686571
98552.04583637939
98552.10070406276
98557.75882529221
98557.43225639677
98556.85762048878
98556.0353820872
98555.034524021
98553.89119181241
98552.63788321873
98551.33020354439
98550.32406921388
98550.17489286889
98550.02409063025
98550.05142574088
98549.93944012564
98550.85310232008
98551.10805565935
98551.25477092755
98551.45219306026
98551.57832062177
98551.67792429931
98551.76337144687
98551.83740384391
98551.90239491315
98551.95970797855
98550.72106473619
98550.72237346774
98550.7144771224
98550.70321586035
98550.68677963289
98550.66142655027
98550.62249529939
98550.56417739358
98550.47358087428
98550.32197893869
98550.10950668802
98549.85870257624
98549.51637750088
98549.66755551555
98550.61916618537
98550.8590390376
98551.19196655547
98551.37794979819
98551.5099811605
98551.61147549649
98551.69360267605
98551.76269472558
98551.82193246303
98550.62636484914
98550.62458247958
98550.61810044004
98550.60806733571
98550.59311604306
98550.57008322567
98550.53489141143
98550.48143513844
98550.39724386032
98550.25903478458
98550.04408580679
98549.72879902786
98549.30253661465
98549.10921173611
98550.08718395105
98550.61654409897
98550.99856633872
98551.21126709654
98551.36077835245
98551.47092691834
98551.55738510429
98551.62845472211
98551.6882739225
98550.56349346931
98550.56097954368
98550.55591587724
98550.54804971245
98550.53664910796
98550.51959769975
98550.49376200477
98550.45445468914
98550.39206729271
98550.28822576479
98550.11746542477
98549.86302980711
98549.58277317966
98549.50838425732
98549.97173390129
98550.53105233659
98550.88308239111
98551.09063008313
98551.2372851375
98551.34556787154
98551.43077525627
98551.50071784182
98551.55926506131
98550.5245791385
98550.52243980643
98550.5191123127
98550.51402380283
98550.5066962674
98550.49607537499
98550.48042939493
98550.45691718868
98550.42017564809
98550.35914201703
98550.25610928731
98550.10646214016
98549.98489404353
98550.04894194049
98550.26791112045
98550.60822883683
98550.84882451322
98551.01385590775
98551.13836711989
98551.23501732317
98551.31359589242
98551.37935833575
98551.43481960945
98550.4784998918
98550.47701626796
98550.47536668605
98550.47304657151
98550.46987282643
98550.46534894848
98550.4586525276
98550.44846898038
98550.43228049386
98550.40473884939
98550.35881517004
98550.30076523437
98550.27826024003
98550.35460795324
98550.51205989686
98550.70173848444
98550.84359039554
98550.95810093697
98551.05394646524
98551.13446906522
98551.20340876697
98551.26305085186
98551.31420383425
98550.42955640369
98550.42876117067
98550.42860877504
98550.42870023708
98550.42902955967
98550.42942986116
98550.42961212773
98550.42914356173
98550.42707748937
98550.42122865567
98550.41015008917
98550.40212425639
98550.42301355695
98550.49536828576
98550.60813969864
98550.72490296183
98550.81654841214
98550.89804992834
98550.97148586236
98551.03740997749
98551.09670796173
98551.14981539764
98551.19627956707
98550.37641015367
98550.37620747961
98550.37725355632
98550.37923248557
98550.38222135995
98550.38621905597
98550.39120856044
98550.39716053264
98550.40383742373
98550.41068023875
98550.41848051529
98550.43352576684
98550.46815898514
98550.52974982865
98550.61036922621
98550.69157284517
98550.76068560673
98550.82442446316
98550.88381861114
98550.93912786171
98550.99053710829
98551.03779931193
98551.07988243137
98550.31835511613
98550.3186125449
98550.32053053715
98550.32385241741
98550.32868212055
98550.33509099299
98550.34317628042
98550.35305853258
98550.36479740801
98550.37851917846
98550.39548130741
98550.41960931609
98550.45644014934
98550.50795612943
98550.56895427617
98550.63050766705
98550.68661158609
98550.73966426151
98550.79007689266
98550.83796095982
98550.88334628879
98550.92579223083
98550.96411678806
98550.25500821526
98550.25559832818
98550.25809529531
98550.26228706795
98550.26827578137
98550.27615402042
98550.28604913723
98550.29811800373
98550.3125294073
98550.32961966541
98550.35042764795
98550.37710932779
98550.41201956272
98550.45550689631
98550.50459180521
98550.55445983369
98550.60187216316
98550.64754311524
98550.69157616414
98550.73397426352
98550.77469162965
98550.81322948917
98550.84843298291
98550.18623970251
98550.18705448511
98550.18989268965
98550.19457849288
98550.20119947901
98550.20984341395
98550.22062880942
98550.23370240306
98550.24924993627
98550.26760689731
98550.28947852869
98550.31595908407
98550.34796836856
98550.38537272028
98550.42651172454
98550.46866313275
98550.50990216208
98550.55016842546
98550.58940853058
98550.62757025044
98550.66457146739
98550.69991283496
98550.73253575448
98550.11211808673
98550.11307294076
98550.11607387949
98550.12097627434
98550.12784987227
98550.13676780388
98550.14782704905
98550.1611489377
98550.17689376434
98550.19532037135
98550.21685692346
98550.24202783979
98550.2711420336
98550.30394104183
98550.33945482194
98550.37614606954
98550.41271878211
98550.44880855599
98550.48430780119
98550.51910570884
98550.55309247579
98550.58579435243
98550.61627208526
98550.03284602893
98550.03387827208
98550.03691636023
98550.04184320955
98550.04871213545
98550.05758026565
98550.06852203955
98550.08163099256
98550.09702916979
98550.11489209252
98550.13545918421
98550.15896090939
98550.18545329692
98550.21467428643
98550.24602413272
98550.27863173725
98550.31156746812
98550.34433467488
98550.37682484904
98550.4088864821
98550.44038733163
98550.47088750523
98550.49956534781
98549.94870531304
98549.94977067226
98549.9527633414
98549.95759062395
98549.96429261925
98549.97291280256
98549.98350679361
98549.99614359856
98550.01090939147
98550.02791390233
98550.04728115594
98550.06909614267
98550.09331676534
98550.11971452503
98550.14788779717
98550.17729022053
98550.20726413882
98550.23734837203
98550.26736910595
98550.29716279705
98550.32658446011
98550.35522948763
98550.38238119433
98549.86001407061
98549.86108278917
98549.86398024733
98549.86863509315
98549.87507764393
98549.88334128505
98549.89346773049
98549.90550672561
98549.91951617639
98549.93556060239
98549.95369771653
98549.97394189957
98549.99621761912
98550.02033622978
98550.04600794625
98550.07285901025
98550.10041672851
98550.12828066955
98550.15623974078
98550.18412775047
98550.21179211733
98550.2388611818
98550.26470726132
98549.76709633989
98549.76814965054
98549.77092585499
98549.77537200043
98549.78151189566
98549.7893722669
98549.79898501642
98549.81038623046
98549.82361411329
98549.83870466471
98549.85567909798
98549.87451900016
98549.89514200535
98549.91739222602
98549.94104506528
98549.96582708391
98549.991407475
98550.01742733005
98550.04364816398
98550.06992356114
98550.09609436705
98550.1218181866
98550.14654113684
98549.67026196272
98549.67128917488
98549.67393469576
98549.67816129203
98549.68398883281
98549.69143999905
98549.70054039735
98549.71131719471
98549.72379618124
98549.73799629952
98549.75391896901
98549.77153288628
98549.79076052248
98549.81147037596
98549.83348149601
98549.85657828445
98549.88050902743
98549.90497705797
98549.92974167068
98549.95465312987
98549.97955395706
98550.00412866438
98550.02788421416
98549.56979448326
98549.57079073056
98549.57330739667
98549.57732057531
98549.58284803249
98549.58991023833
98549.59852920921
98549.60872683478
98549.62052149432
98549.63392248271
98549.64892175377
98549.66548456124
98549.68354032149
98549.7029766872
98549.72364392996
98549.74536375339
98549.76792873038
98549.79109258462
98549.81463297232
98549.83839317373
98549.86221758524
98549.88581391053
98549.90873900033
98549.46594469809
98549.46690924556
98549.46930628168
98549.47312309654
98549.47837656735
98549.48508629393
98549.49327260083
98549.50295441321
98549.51414586125
98549.5268514371
98549.54105974811
98549.55673650568
98549.57381754207
98549.59220553662
98549.61177248938
98549.63236520994
98549.65380713408
98549.67588892533
98549.6984066857
98549.72120086258
98549.74411932868
98549.76688934422
98549.78910771206
98549.35892794938
98549.35986295591
98549.36215428282
98549.36579857201
98549.37081261666
98549.37721608522
98549.38502861437
98549.39426724706
98549.40494426787
98549.41706250244
98549.43060993803
98549.44555385874
98549.4618360694
98549.47937096452
98549.4980459229
98549.51772521519
98549.53825313305
98549.55944785515
98549.58112233647
98549.60311721732
98549.62528389963
98549.64736587919
98549.66899188141
98549.24892373281
98549.2498333738
98549.25203581108
98549.25553555391
98549.26034984444
98549.26649871918
98549.27400113779
98549.28287361417
98549.2931281679
98549.30476726881
98549.31777905492
98549.3321327646
98549.34777557352
98549.36463046314
98549.38259589435
98549.40154858572
98549.42134719693
98549.44183036617
98549.46282418368
98549.48417191507
98549.5057287574
98549.52725099443
98549.54839237071
98549.13607659441
98549.13696643284
98549.13909861646
98549.14248436749
98549.14714133852
98549.15308958852
98549.16034792691
98549.16893353328
98549.17885819566
98549.19012429003
98549.20272040754
98549.21661778793
98549.2317678618
98549.24809967654
98549.26551964422
98549.28391361405
98549.30315021863
98549.32308183194
98549.34354395974
98549.36438639429
98549.38546635561
98549.40654982309
98549.42730964813
98549.02049640617
98549.0213727938
98549.02345471723
98549.02675853645
98549.03130197422
98549.03710516929
98549.0441875621
98549.05256616371
98549.06225271978
98549.07324949086
98549.0855454415
98549.09911363338
98549.11390823296
98549.1298624028
98549.14688805409
98549.16487741355
98549.18370577409
98549.20323304203
98549.22330516625
98549.24377650784
98549.26450563267
98549.2852657991
98549.30574397153
98548.90225535318
98548.90312427051
98548.90517698476
98548.90843212504
98548.9129075927
98548.91862327217
98548.92559881187
98548.93385095548
98548.94339102594
98548.95422091935
98548.96632978205
98548.97969158499
98548.99426198033
98549.00997654592
98549.0267505348
98549.04448010337
98549.06304462513
98549.08230868999
98549.10212544687
98549.12235396566
98549.14285341214
98549.16340172559
98549.18369613634
98548.78140965596
98548.78227703783
98548.78431923337
98548.78755604873
98548.79200606895
98548.79768947592
98548.80462553886
98548.81283048035
98548.82231466407
98548.8330790546
98548.84511235794
98548.85838810795
98548.87286210561
98548.88847067977
98548.90513046694
98548.92273952039
98548.94117953329
98548.96031830201
98548.98001283969
98549.00012416817
98549.02051220792
98549.04095786177
98549.06116705539
98553.43467061923
98553.57589754011
98553.86916430805
98554.05292064305
98554.32078018345
98554.2632224038
98554.2449492295
98554.24903212214
98554.3440054828
98554.2856755922
98554.2499847431
98554.23744794948
98554.19443069953
98554.17696221352
98554.16921266288
98554.16583224019
98554.02629718218
98554.03005504441
98554.03422863473
98554.03633457804
98553.85061342199
98553.86291042305
98553.87311314876
98553.88037963427
98553.67494710302
98553.6915013921
98553.70571025476
98553.71711785362
98553.50385174689
98553.52274950253
98553.53944838778
98553.55365125036
98553.33822979826
98553.35832171592
98553.37645636089
98553.39244723818
98553.17759433363
98553.19823335092
98553.21717399842
98553.23429859611
98553.02117223745
98553.04203350397
98553.06142529535
98553.07927542037
98552.86820898906
98552.88915568363
98552.90881710485
98552.92715479455
98552.71803942448
98552.73905548909
98552.75892542808
98552.7776347523
98552.57010629552
98552.59127183416
98552.6113828926
98552.63044026813
98552.42406054359
98552.44552299453
98552.46596791669
98552.48541707733
98552.2798022721
98552.30170771509
98552.32257991661
98552.34245812411
98552.13747754747
98552.1599180323
98552.18125062504
98552.20157044928
98551.99749182128
98552.02045306364
98552.04219750462
98552.06290390906
98551.86041887042
98551.88373472376
98551.90573335502
98551.92670037826
98551.72681643635
98551.75016516319
98551.77214832303
98551.79316984133
98551.59700596919
98551.61996287579
98551.64158849449
98551.66239884752
98551.47091262677
98551.49304638959
98551.51397107157
98551.53429133554
98551.34804022648
98551.36901537672
98551.38896848503
98551.40855931139
98551.22760526901
98551.24724447547
98551.2660736503
98551.2847729737
98551.1087616444
98551.12704432357
98551.14471624843
98551.16244894917
98550.99079690629
98551.00780860432
98551.02437479948
98551.04113703509
98550.87321236098
98550.88908455068
98550.90463831174
98550.92047120741
98550.75569331135
98550.77056443151
98550.78521097437
98550.80017874642
98550.63804712318
98550.65204627512
98550.66588839797
98550.6800649865
98550.52015719468
98550.53339910565
98550.54653186331
98550.55999374363
98550.40195480169
98550.4145393466
98550.42704842628
98550.43987052103
98550.28340024842
98550.2954138167
98550.30737582702
98550.31962960717
98550.16447086522
98550.17598893461
98550.18747246658
98550.19922497438
98550.04515304475
98550.05624242227
98550.06730963181
98550.07862358274
98549.92543838003
98549.93615906924
98549.94686677142
98549.95780082393
98549.80532118934
98549.8157279975
98549.82612878359
98549.83673802191
98549.68479731404
98549.69494115283
98549.70508432372
98549.71542073828
98549.56386348138
98549.57379232123
98549.58372464108
98549.59383766519
98549.44251723001
98549.45227687941
98549.46204316587
98549.47198012815
98549.3207566934
98549.33039136662
98549.34003494958
98549.34984149599
98549.19858126102
98549.20813433145
98549.21769787668
98549.22741834768
98549.07599499731
98549.08551028109
98549.09503618308
98549.10471149706
98554.25745719345
98554.39910593035
98554.46807438601
98554.49936222582
98554.51642731333
98554.52846188241
98554.53791032697
98554.54586086448
98554.5528136099
98554.55897003076
98554.56441858108
98554.56920575943
98554.57336012681
98554.5769014601
98554.57984464653
98554.58220129469
98554.58398048537
98554.58518961031
98554.58582874686
98554.27316021343
98554.32914835784
98554.37028188586
98554.3906997147
98554.401545047
98554.40953745495
98554.41656512776
98554.42298201378
98554.4289121193
98554.43437656212
98554.43935642373
98554.44382806084
98554.44777230856
98554.45117588194
98554.45403047494
98554.45633140807
98554.45807646835
98554.45926546821
98554.45989389929
98554.23069433733
98554.24323159398
98554.26350891379
98554.27586996731
98554.28267816642
98554.28812531126
98554.29343602798
98554.29868276528
98554.30380957109
98554.30872627455
98554.31333812118
98554.31756712758
98554.32135538389
98554.32466192241
98554.32745858096
98554.32972652516
98554.33145362254
98554.33263306452
98554.33325665843
98554.15558511291
98554.14839687721
98554.1521250916
98554.1565787282
98554.1601099744
98554.1638611862
98554.16810358348
98554.17264960193
98554.17730675833
98554.18190880466
98554.18631519987
98554.19041620777
98554.19413034452
98554.19739877497
98554.20017988878
98554.20244488574
98554.20417442768
98554.20535677222
98554.20598098505
98554.03245737749
98554.02634660965
98554.02707292794
98554.02967875081
98554.03261546772
98554.03612537433
98554.04020618678
98554.04464728537
98554.04924218435
98554.05381409405
98554.05821625363
98554.06233297072
98554.06607635491
98554.0693812992
98554.07220057551
98554.07450067611
98554.07625854285
98554.07745972011
98554.07809177559
98553.88586822119
98553.88823814392
98553.89216433538
98553.89638666422
98553.90057949838
98553.90501934131
98553.90974758536
98553.914649375
98553.91958371471
98553.92441499951
98553.92902332275
98553.93330936368
98553.93719443619
98553.94061815286
98553.94353536978
98553.94591322071
98553.9477285765
98553.94896665309
98553.9496148956
98553.73048913619
98553.7416569413
98553.75068678742
98553.75821044976
98553.7648065816
98553.7709945489
98553.7769829207
98553.78280463167
98553.78842285108
98553.79377255247
98553.79878184406
98553.8033834806
98553.80751977846
98553.81114386518
98553.81421915468
98553.8167181118
98553.81862084568
98553.81991445897
98553.82058758837
98553.57266298088
98553.59111563428
98553.60536904733
98553.61675094365
98553.62627917138
98553.6346732722
98553.64231290258
98553.64937759806
98553.65594026521
98553.66201543028
98553.66758829218
98553.67263195755
98553.67711687055
98553.68101553583
98553.6843045657
98553.68696533288
98553.68898380689
98553.69035079851
98553.69105723916
98553.41530785937
98553.43937436293
98553.4582621545