/*--------------------------------*- C++ -*----------------------------------*\
| =========                 |                                                 |
| \\      /  F ield         | OpenFOAM: The Open Source CFD Toolbox           |
|  \\    /   O peration     | Version:  2206                                  |
|   \\  /    A nd           | Website:  www.openfoam.com                      |
|    \\/     M anipulation  |                                                 |
\*---------------------------------------------------------------------------*/
FoamFile
{
    version     2.0;
    format      ascii;
    arch        "LSB;label=32;scalar=64";
    class       volScalarField;
    location    "0.1";
    object      p_rgh;
}
// * * * * * * * * * * * * * * * * * * * * * * * * * * * * * * * * * * * * * //

dimensions      [1 -1 -2 0 0 0 0];

internalField   nonuniform List<scalar> 
2268
(
100556.5061254255
100550.5909143462
100536.1757978187
100513.2592561453
100481.6493507008
100440.8997493727
100390.404041912
100329.39075704
100256.891828144
100171.6828595258
100072.2086042777
99956.71753291185
99821.66580790293
99660.94379303908
99469.98184549548
99255.33121764621
99039.63708206003
98850.15508659577
98702.95736455853
98630.19400288057
98565.28555451572
98557.85522905743
98558.25493726613
100556.215844534
100550.2868264287
100535.8105515876
100512.8266499461
100481.1247797084
100440.2461168085
100389.5707052747
100328.3053277136
100255.4511203564
100169.7313123597
100069.5109513616
99952.95213863546
99816.58920032749
99654.69930095375
99462.89591615877
99246.96980689152
99029.04626935681
98837.02413197937
98693.33951539462
98576.20593867704
98556.6701783829
98557.61835900709
98558.09653082557
100556.1152321474
100550.1807246098
100535.6399750106
100512.5845309133
100480.7790757368
100439.7470535886
100388.8492837619
100327.26168595
100253.9435324289
100167.5452777531
100066.3420900383
99948.42884911774
99810.40459929949
99646.71850015775
99452.59203077214
99232.20287699814
99007.06199532162
98813.50097724512
98632.18582303241
98557.01153129319
98556.49427584228
98557.32858179905
98557.75257667238
100556.2062856788
100550.2518471337
100535.6278487279
100512.4758950431
100480.5312806766
100439.2941864837
100388.0981625214
100326.0763179449
100252.1307136902
100164.8105309826
100062.2731195449
99942.51932518008
99802.11106630323
99635.29711635779
99435.98165159962
99204.45169281035
98965.05286458383
98720.63779667005
98562.44504623783
98556.04662442411
98556.44802283369
98557.01693737762
98557.35136401697
100556.5790112667
100550.5883009702
100535.8686179255
100512.603251779
100480.4959319296
100439.0202766053
100387.4766536185
100324.9469601294
100250.2659908671
100161.8589155866
100057.7454381474
99935.80050050914
99792.40125634358
99621.0140069737
99412.42438531773
99159.65847515516
98878.44552330041
98596.90153909591
98555.70782027567
98555.92641009534
98556.33094736782
98556.69620886061
98556.94798354637
100557.312143834
100551.2875172245
100536.4832981052
100513.1126177738
100480.8482101184
100439.1359892481
100387.2398506733
100324.1859802743
100248.7365729024
100159.1750167671
100053.388795351
99929.12056924823
99782.35172825017
99604.66209902083
99379.97884403513
99096.84710625683
98685.79717256266
98555.68206990944
98555.55876640696
98555.86087648271
98556.12510414375
98556.37783057381
98556.55020852348
100557.9661794738
100551.9163274383
100537.0401435885
100513.5659031049
100481.1374454436
100439.1706776502
100386.888376943
100323.255063161
100246.9514500449
100156.0953715193
100048.459943609
99921.71425478678
99771.21691066489
99584.92764681579
99336.05933741947
98957.37836053505
98592.00137044702
98555.47222740471
98555.45670627075
98555.70875577281
98555.90178087054
98556.07761929659
98556.14906433757
100557.5025025557
100551.3311227771
100536.2839314391
100512.5700394045
100479.8056470395
100437.3677054365
100384.423619969
100319.8582011317
100242.2434205369
100149.4986396095
100039.2295042654
99909.02295381519
99753.24554399197
99554.37269509702
99279.07790021811
98772.70739097368
98556.0134700912
98555.23905236012
98555.36339551878
98555.5415283781
98555.69579311635
98555.79889713177
98555.72558926945
98554.94830208806
98554.96692965379
98554.98920830074
98555.01018352353
98555.02835987508
98555.04374023675
98555.05675554281
98555.06774772897
98555.07705017037
98555.08493407247
98555.09161581915
98555.09726473159
98555.10201063326
98555.10595137831
98555.10915966217
98555.11168864417
98555.11357634162
98555.11484877208
98555.11551672532
98554.94448900553
98554.9652693463
98554.98864540864
98555.01018358166
98555.02855178718
98555.0439429658
98555.05691682095
98555.06784981175
98555.07709877605
98555.08493947804
98555.09158820496
98555.09721271748
98555.10194099894
98555.105869234
98555.10906876963
98555.1115917498
98555.11347550314
98555.11474604902
98555.11541560783
98554.93670927471
98554.96210907272
98554.98768853526
98555.01030113139
98555.0289949562
98555.04437615565
98555.0572317504
98555.06803287934
98555.07716732781
98555.08491754529
98555.09149849994
98555.09707394293
98555.10176753446
98555.10567169686
98555.1088548144
98555.11136683391
98555.11324354408
98555.11451005591
98555.11517726224
98554.92450599278
98554.95745498544
98554.98647535087
98555.01065098144
98555.02974086211
98555.04508322879
98555.05770124531
98555.06828920548
98555.07724490589
98555.0848565393
98555.09133520022
98555.09683750958
98555.10147999892
98555.10534911082
98555.10850860947
98555.11100505175
98555.11287183398
98555.11413249219
98555.11479676107
98554.90720126807
98554.95125068209
98554.98524168791
98555.01138965484
98555.03084206372
98555.0459955687
98555.05831246421
98555.06860611703
98555.07732017623
98555.08474757278
98555.09109184689
98555.09649897408
98555.1010754677
98555.10489963503
98555.10802906053
98555.11050580174
98555.11236008469
98555.11361333984
98555.11427414992
98554.88284226706
98554.94367147339
98554.98446667142
98555.01271679546
98555.03235602666
98555.04715114234
98555.05904994856
98555.06896442884
98555.07737627742
98555.0845775818
98555.0907590057
98555.09605179309
98555.10054955125
98555.10432042831
98555.10741441269
98555.10986807311
98555.11170778531
98555.1129524213
98555.11360923899
98554.84635532161
98554.93545140716
98554.9849657312
98555.01486384172
98555.03430889286
98555.04853845284
98555.05988722533
98555.06933709541
98555.0773908655
98555.08432988109
98555.09032481724
98555.09548776019
98555.09989670709
98555.1036078473
98555.10666234819
98555.10909045362
98555.11091412605
98555.1121493024
98555.1128017063
98554.79668102578
98554.92717635643
98554.9871387896
98555.01800373362
98555.03668278843
98555.05010348817
98555.06077530408
98555.06968352433
98555.07733374534
98555.08398291418
98555.08977413841
98555.09479643141
98555.09910988057
98555.10275724732
98555.10576992037
98555.10817118107
98555.10997816059
98555.11120359391
98555.1118513945
100557.1414670602
100550.6925227392
100535.382961544
100511.2747983085
100477.9662176607
100434.7776158715
100380.7887302808
100314.7620928281
100235.08971793
100139.4502511071
100025.1266261322
99889.29248217496
99723.34051368764
99499.61822395204
99171.41207910262
98656.9728991873
98555.26469016451
98555.05828106009
98555.20849425685
98555.31135666028
98555.4055552791
98555.40013397823
98554.93076740141
100562.1552809065
100555.5953380963
100540.2253577091
100516.0400080029
100482.5907699563
100439.1544657435
100384.7459278397
100318.0317319479
100237.2892790907
100139.9430298951
100023.1584127646
99883.89277770111
99708.6798396979
99459.95033163251
98924.90439916325
98558.75364803089
98554.60711374533
98554.80619847738
98554.96946844927
98555.09286919625
98555.18187944837
98555.20520343965
98555.12555596822
100569.926796218
100563.2399612196
100547.8305992387
100523.6578277687
100490.2342789662
100446.8087925297
100392.3606284192
100325.506025532
100244.4884042093
100146.5651943636
100029.1078315342
99889.03758665726
99707.2798085926
99433.17449406703
98724.33032195999
98554.28098953979
98554.42153342289
98554.64384791604
98554.80598573518
98554.94757094068
98555.05941032287
98555.13693466605
98555.18010285501
100581.0777756205
100574.3380993817
100559.0455244687
100535.1316767417
100502.0926300496
100459.1767633584
100405.3698184549
100339.3015815745
100259.2838245345
100162.5423019286
100047.0170031869
99909.42081199677
99724.62255745179
99296.52406743752
98615.29966200879
98554.49561624949
98554.39603284794
98554.55168735411
98554.7026709052
98554.84603023517
98554.96600486437
98555.05352796796
98555.10720389444
100596.1039799948
100589.3968049032
100574.3992111151
100551.0209510566
100518.7635948782
100476.9029955503
100424.4718293852
100360.1730920602
100282.477209509
100188.7063059007
100077.6987207796
99945.67642180431
99763.86643717582
99126.78127513391
98562.60367969387
98554.15909696458
98554.30734659157
98554.47030141209
98554.62689407545
98554.76715758552
98554.88289424729
98554.96989793936
98555.02928621015
100615.4070376891
100608.8272615237
100594.3147135053
100571.7643946082
100540.7027906685
100500.4573937454
100450.1409567204
100388.5754291644
100314.4485137759
100225.2564416994
100120.8854198987
99996.63190729276
99826.04766706284
98949.800957998
98553.75048914076
98554.07258534164
98554.2670476083
98554.42717030902
98554.57558592939
98554.70593061647
98554.81440760451
98554.89987020969
98554.96334030581
100639.2715001583
100632.9174446816
100619.078886617
100597.6438908063
100568.1791346092
100530.0815779035
100482.5665437899
100424.6028538991
100355.1173797274
100271.8051480993
100175.5457030777
100060.1257856198
99826.3677442094
98817.29683165139
98554.12574014658
98554.1574163131
98554.28612697164
98554.41571661626
98554.54450475586
98554.66068266753
98554.76023797858
98554.84187327168
98554.90559841463
100667.852040202
100661.8192900719
100648.8315689027
100628.7774187099
100601.274258892
100565.7995064145
100521.6831125003
100468.0539322992
100404.075283559
100327.6578821208
100240.5719484762
100134.9188822726
99791.88370096142
98718.73697767672
98554.22819283722
98554.21396853532
98554.31073892099
98554.41544691082
98554.52504528948
98554.62693069266
98554.7168898956
98554.79320326232
98554.85524806038
100701.1648176376
100695.5410875561
100683.5604492605
100665.1181794648
100639.8883397082
100607.4335098679
100567.2015377108
100518.4834154249
100460.6597736498
100391.8774842922
100314.6305557376
100219.3725429457
99730.66098821029
98644.85927716832
98554.22516994113
98554.24550042104
98554.32836168664
98554.41613199672
98554.51073446641
98554.60021764507
98554.68125840912
98554.75207844384
98554.81179351253
100739.0892304046
100733.9505233696
100723.1069173867
100706.4653116116
100683.7582654715
100654.6330093869
100618.6517265666
100575.260906387
100524.028151527
100463.3656996105
100396.2799749018
100311.8982036136
99641.07266907299
98595.96950165609
98554.19169377281
98554.2592317511
98554.3401473546
98554.41424705571
98554.49797202053
98554.57752483767
98554.65096074331
98554.71681688922
98554.77409462382
100781.3993644859
100776.8078123931
100767.2024340081
100752.5056456202
100732.5075210753
100706.9358956249
100675.4592408375
100637.6648887803
100593.2691834719
100540.9816219367
100484.0170318881
100410.5708751784
99515.15852721555
98567.34181152102
98554.2103993147
98554.24592519713
98554.34231348327
98554.40911116678
98554.48539130138
98554.5570230087
98554.62424524009
98554.68590326112
98554.74093870555
100827.8269058731
100823.8294623408
100815.5334107441
100802.8798383651
100785.7134393083
100763.8367475346
100737.014440205
100704.9537503411
100667.4829711737
100623.6259418828
100576.3929243165
100513.8138931654
99337.8558105266
98554.3574738296
98554.22193341049
98554.25246099768
98554.34379784884
98554.4061919292
98554.47325533669
98554.53779985619
98554.59989918783
98554.65814315736
98554.71130955007
100877.9956132025
100874.6217403706
100867.6716322345
100857.1075553873
100842.8242774158
100824.6927771802
100802.5645745058
100776.2473342799
100745.6709190431
100710.171590917
100672.1821231642
100620.68587472
99139.23117634008
98554.30998590335
98554.30792121137
98554.29220537713
98554.35550459707
98554.40389009647
98554.46080945441
98554.51895486047
98554.57690006743
98554.63256389102
98554.68437370071
100930.6712790027
100927.9266005693
100922.310654373
100913.8083413032
100902.3591145304
100887.8972113694
100870.3521685681
100849.619681268
100825.7207569881
100798.3008821344
100769.1824654828
100730.8198183863
99013.07773729795
98554.46834398885
98554.3833658646
98554.32820019628
98554.36395254081
98554.3963301731
98554.44537074464
98554.4988128784
98554.55408261376
98554.60828941184
98554.65943527002
100984.9428279875
100982.8419899016
100978.5689267197
100972.1427231689
100963.5509909319
100952.8006458829
100939.9074917112
100924.8575581574
100907.7299949128
100888.313409379
100867.9892934586
100844.4348123362
98985.48031449752
98554.590033473
98554.42552458655
98554.34588292312
98554.34858411174
98554.37655853938
98554.42187815253
98554.47475690719
98554.53018415417
98554.5846352416
98554.63605762209
101046.1122873372
101044.7544576154
101041.9987159748
101037.9242043479
101032.5668435491
101026.0333618068
101018.4615361804
101009.9786595976
101000.7600358676
100990.5790291095
100979.7313080435
100877.6353876171
99028.13189466289
98554.7849080756
98554.41445324352
98554.30233724436
98554.30183757321
98554.33829889531
98554.38866259569
98554.44616802923
98554.5048697521
98554.56141067662
98554.61413319586
100811.7618578922
100798.8845377298
100775.9320125905
100740.8990808837
100691.2986171258
100627.3946185268
100547.3766276673
100449.6883567507
100320.1427905602
100103.9881432867
99794.41913554049
99318.30483034656
99005.66453505562
98569.37999481733
98554.3139277114
98554.16472504825
98554.20971523778
98554.27744657408
98554.34475161837
98554.41342529516
98554.47869098888
98554.53901099405
98554.59387928242
98867.2074467565
98852.90809419408
98828.49548432138
98793.54809277046
98751.13985605404
98702.83300532498
98650.12902329653
98595.35194115489
98553.65289686923
98553.50545490396
98553.34716239056
98553.29795040462
98577.55299874206
98608.51604296995
98554.32558198788
98553.89789285851
98554.06962984819
98554.19454154388
98554.29414618846
98554.37959472559
98554.45362803726
98554.51861978794
98554.57593358512
98554.00580904243
98554.00522713315
98553.99342047962
98553.97666840818
98553.94921158337
98553.90886995826
98553.85636699876
98553.78136225804
98553.66559148314
98553.47295597513
98553.22317757591
98552.92688039455
98552.73302302405
98602.89774025751
98557.10944861811
98553.64167433938
98553.93191265601
98554.11721130475
98554.24925199502
98554.35074820227
98554.43287662711
98554.50196956616
98554.56120815329
98553.67391665756
98553.66998244252
98553.6598574082
98553.64484922985
98553.61753006444
98553.57770283919
98553.53043237001
98553.46335215608
98553.36307333093
98553.2050288816
98552.97874165344
98552.70147760697
98553.02977716735
98564.70226329153
98556.16048254073
98553.50536093203
98553.86048898697
98554.07358589495
98554.22309823449
98554.33324898173
98554.41970864515
98554.49077929702
98554.55059938994
98553.50312704101
98553.50091726401
98553.49609338952
98553.48898186609
98553.47944059403
98553.46375582507
98553.43794110965
98553.39939844863
98553.33960711041
98553.24378112183
98553.10194210224
98552.93334390788
98552.75977087606
98552.80347482533
98555.42528846067
98553.51583916314
98553.86793681129
98554.07603293008
98554.22265308254
98554.33093946679
98554.4161483393
98554.48609198496
98554.54464005218
98553.63497281447
98553.63285457046
98553.62955753355
98553.62446646788
98553.61710930159
98553.60670306969
98553.59165034839
98553.5691979032
98553.5348055386
98553.47874054163
98553.38430414574
98553.24780484878
98553.1477451102
98553.3015019887
98553.58576943605
98553.70897895042
98553.9571173078
98554.12232669936
98554.24678314372
98554.34343869203
98554.42201850691
98554.48778189215
98554.54324387097
98553.71037535138
98553.70889076339
98553.7072392636
98553.70491881979
98553.7017428468
98553.69719173449
98553.69042518464
98553.68009752124
98553.66365576597
98553.63601243097
98553.59122255468
98553.5371309256
98553.52137761808
98553.60416478838
98553.76196317587
98553.92879360553
98554.07507129014
98554.18960932315
98554.28541292089
98554.36594024292
98554.43488085226
98554.49452366712
98554.54567717495
98553.78402668651
98553.7832303047
98553.78307697216
98553.78316740604
98553.78349591958
98553.78389656765
98553.78408146297
98553.78362244846
98553.78158508481
98553.77580140151
98553.76486188431
98553.75719796943
98553.77893496145
98553.85244708791
98553.96546408485
98554.0781535328
98554.17106603239
98554.25258734978
98554.32600405993
98554.39193076988
98554.45122934903
98554.50433726431
98554.55080176698
98553.85399795171
98553.85379492707
98553.8548404546
98553.85681901504
98553.85980787416
98553.86380585066
98553.86879561772
98553.87474721436
98553.88142224085
98553.88826161523
98553.89606048471
98553.9111183629
98553.94580152378
98554.00748742247
98554.08814825305
98554.16895031197
98554.23824854281
98554.30199918999
98554.36138776908
98554.41669797858
98554.46810756184
98554.51537003384
98554.55745334293
98553.9189870322
98553.91924394979
98553.92116123796
98553.92448250277
98553.9293118619
98553.93572068053
98553.94380603368
98553.95368818229
98553.96542651343
98553.97914716421
98553.99610762052
98554.02023366783
98554.05706321374
98554.1085798651
98554.16957737126
98554.23111223886
98554.28722900384
98554.34028437731
98554.39069581164
98554.43858007005
98554.48396553777
98554.52641158819
98554.56473622388
98553.97868899794
98553.97927857572
98553.98177478078
98553.98596582105
98553.99195401221
98553.99983200504
98554.00972707108
98554.02179588749
98554.03620701736
98554.05329663106
98554.074103594
98554.10078399599
98554.13569285454
98554.17917889087
98554.22826252194
98554.27812889678
98554.32554077683
98554.37121151388
98554.41524407749
98554.45764207312
98554.49835946152
98554.53689734712
98554.57210086854
98554.0329688708
98554.03378311652
98554.03662054418
98554.04130554647
98554.0479258712
98554.05656937462
98554.06735455099
98554.08042801992
98554.09597535353
98554.1143318956
98554.13620283086
98554.16268245046
98554.19469064394
98554.23209384638
98554.27323167888
98554.31538188901
98554.35661989854
98554.39688541742
98554.43612502493
98554.47428652848
98554.51128770868
98554.54662905376
98554.57925196255
98554.0818953759
98554.0828497219
98554.08584991774
98554.09075150485
98554.09762436643
98554.10654173078
98554.11760060201
98554.13092225126
98554.14666685477
98554.16509312812
98554.1866291536
98554.21179933377
98554.24091261397
98554.27371058775
98554.30922327025
98554.3459133891
98554.38248504382
98554.41857398322
98554.45407268143
98554.48887032978
98554.5228570414
98554.55555889025
98554.58603661107
98554.12567117497
98554.12670296572
98554.12974038871
98554.13466648244
98554.14153466653
98554.15040215921
98554.1613434469
98554.17445204951
98554.18984994007
98554.20771254184
98554.22827919369
98554.25178031459
98554.27827192917
98554.30749200429
98554.33884084725
98554.37144740451
98554.40438207951
98554.43714843721
98554.46963802492
98554.50169936127
98554.53320012891
98554.56370025715
98554.59237807445
98554.16457805669
98554.16564303856
98554.16863515157
98554.17346177793
98554.18016308721
98554.18878263078
98554.19937608391
98554.21201246527
98554.22677791306
98554.24378208905
98554.26314894459
98554.28496341509
98554.30918337713
98554.33558033447
98554.36375269353
98554.39315413997
98554.42312705636
98554.45321043528
98554.48323053647
98554.51302388114
98554.54244542525
98554.57109039815
98554.59824208869
98554.19893416407
98554.2000025892
98554.20289961471
98554.20755392917
98554.21399589063
98554.22225894239
98554.23238485277
98554.244423396
98554.25843246891
98554.27447654979
98554.29261329435
98554.31285702891
98554.33513218207
98554.35925009455
98554.38492099282
98554.41177115071
98554.43932791046
98554.46719096572
98554.49514934044
98554.52303692627
98554.55070110432
98554.57777007156
98554.60361612213
98554.22906354057
98554.23011664134
98554.23289253356
98554.23733827726
98554.24347769718
98554.25133756005
98554.26094981682
98554.27235058925
98554.28557808991
98554.30066829844
98554.31764238757
98554.33648189651
98554.35710441595
98554.37935403074
98554.40300613831
98554.42778731484
98554.45336679017
98554.47938571009
98554.50560578307
98554.53188067055
98554.55805121177
98554.58377489733
98554.60849782276
98554.25527604351
98554.25630311854
98554.25894842952
98554.26317473572
98554.26900190675
98554.27645264968
98554.28555261211
98554.29632899804
98554.30880761651
98554.32300740544
98554.33892975797
98554.35654333082
98554.37577055156
98554.39647988201
98554.41849034469
98554.44158634076
98554.46551618876
98554.48998327271
98554.51474705995
98554.53965791824
98554.56455839309
98554.58913290944
98554.61288842098
98554.2778552229
98554.27885139064
98554.28136792091
98554.28538089187
98554.29090805941
98554.29796991126
98554.30658849784
98554.31678574493
98554.3285800561
98554.34198073187
98554.35697971162
98554.37354221786
98554.39159762594
98554.41103354232
98554.4317001985
98554.45341928337
98554.47598339239
98554.49914630398
98554.52268581829
98554.54644534556
98554.5702693365
98554.59386543249
98554.6167904847
98554.29705189257
98554.29801639622
98554.3004133377
98554.30422998744
98554.30948321227
98554.3161926243
98554.32437857809
98554.33406003287
98554.34525114605
98554.35795642275
98554.37216446505
98554.38784096144
98554.40492170416
98554.42330931986
98554.44287575872
98554.46346780214
98554.48490889669
98554.50698975949
98554.5295066143
98554.55230006532
98554.57521805289
98554.59798779688
98554.6202061146
98554.31308139437
98554.31401637397
98554.31630761531
98554.31995174731
98554.32496555358
98554.33136871559
98554.33918089799
98554.34841917666
98554.35909586502
98554.37121380671
98554.38476099177
98554.39970468696
98554.41598665768
98554.43352124213
98554.45219576129
98554.47187444293
98554.49240157931
98554.51359540049
98554.53526897286
98554.557263107
98554.57942928336
98554.60151097341
98554.62313692171
98554.32612323476
98554.32703284321
98554.32923517744
98554.33273473913
98554.33754876872
98554.34369731789
98554.35119937416
98554.36007148387
98554.37032569677
98554.38196450565
98554.39497605628
98554.40932957284
98554.42497219265
98554.44182683827
98554.45979190325
98554.47874405216
98554.49854193533
98554.5190242415
98554.54001716574
98554.56136414988
98554.58292047498
98554.60444241189
98554.62558372789
98554.33632194632
98554.33721173211
98554.339343777
98554.34272930698
98554.34738597805
98554.35333386913
98554.3605918184
98554.36917703781
98554.3791013482
98554.3903671505
98554.40296304671
98554.4168602651
98554.43201019762
98554.44834182932
98554.46576149623
98554.48415498504
98554.50339091224
98554.52332170216
98554.54378296938
98554.56462467862
98554.58570414064
98554.60678732426
98554.62754709546
98554.34378738841
98554.34466369235
98554.34674543653
98554.35004899117
98554.35459208976
98554.36039489364
98554.36747687313
98554.37585507342
98554.38554127343
98554.39653776046
98554.40883351114
98554.42240157563
98554.43719607948
98554.45315011598
98554.47017551318
98554.48816443002
98554.50699214193
98554.52651861173
98554.54658990839
98554.567060563
98554.58778923284
98554.60854916209
98554.62902731463
98554.34859171638
98554.34946052577
98554.35151303362
98554.35476788653
98554.35924299822
98554.36495827748
98554.37193340255
98554.38018515108
98554.38972487864
98554.400554508
98554.41266319613
98554.4260248987
98554.44059522201
98554.45630966913
98554.47308340819
98554.49081253244
98554.50937640906
98554.52863969869
98554.54845568287
98554.56868359615
98554.58918268509
98554.60973086188
98554.63002532761
98554.35079120066
98554.35165846598
98554.35370048592
98554.35693706467
98554.36138679975
98554.36706988937
98554.37400562195
98554.38221024044
98554.39169412757
98554.40245826067
98554.41449134686
98554.42776690554
98554.44224070653
98554.45784903674
98554.47450849456
98554.49211711719
98554.51055661864
98554.52969485481
98554.54938891411
98554.56949989524
98554.5898877224
98554.61033323714
98554.63054234361
98553.9602767344
98554.10085101188
98554.39375536575
98554.57735404093
98554.96911534549
98554.91112680291
98554.89259850637
98554.89654706701
98555.11499533114
98555.05642480169
98555.02058679178
98555.00796945721
98555.08818136442
98555.07060142778
98555.06278467504
98555.05936799276
98555.04294980803
98555.0466636622
98555.05081162488
98555.05290401031
98554.99025619244
98555.00253786775
98555.01273207257
98555.0199940851
98554.93761976685
98554.95416933822
98554.96837571565
98554.9797819426
98554.88956909254
98554.90846565837
98554.92516396097
98554.93936641308
98554.84699662945
98554.8670884181
98554.88522301908
98554.90121377622
98554.80941201077
98554.83005116085
98554.84899189098
98554.86611647376
98554.77604110581
98554.79690252501
98554.81629438922
98554.83414453649
98554.74612911255
98554.76707589884
98554.78673733516
98554.80507505317
98554.71901084762
98554.74002691792
98554.75989676993
98554.77860607969
98554.69412899946
98554.71529443521
98554.73540529402
98554.75446258469
98554.67113450643
98554.6925967069
98554.71304129322
98554.73249024614
98554.64992730196
98554.67183235697
98554.69270414648
98554.7125820769
98554.63065337253
98554.65309338618
98554.67442552357
98554.69474504655
98554.61371804832
98554.63667881006
98554.65842282401
98554.67912894867
98554.59969512858
98554.62301055351
98554.64500882007
98554.66597562266
98554.58914235243
98554.61249077029
98554.63447368506
98554.65549507497
98554.58238128296
98554.60533803042
98554.62696353314
98554.6477738649
98554.57933709866
98554.60147088964
98554.62239560972
98554.64271595962
98554.57951371945
98554.60048907751
98554.62044235942
98554.64003336754
98554.58212761108
98554.60176722062
98554.62059671005
98554.63929629585
98554.58633273373
98554.60461598235
98554.62228833423
98554.6400213626
98554.59141657625
98554.60842901673
98554.62499575103
98554.6417583658
98554.5968805368
98554.61275359306
98554.62830796705
98554.64414127546
98554.60240985097
98554.61728195204
98554.63192917054
98554.64689737202
98554.60781199284
98554.62181216863
98554.63565497892
98554.64983198681
98554.61297025665
98554.62621321509
98554.63934665603
98554.65280892835
98554.61781600233
98554.63040155027
98554.64291126304
98554.65573369541
98554.62230938411
98554.63432390867
98554.64628650053
98554.65854055951
98554.626427792
98554.63794673391
98554.64943077415
98554.66118348821
98554.63015746832
98554.64124765615
98554.65231531925
98554.66362941913
98554.63349006049
98554.6442114934
98554.65491959681
98554.66585374385
98554.63641977478
98554.64682729522
98554.65722846039
98554.66783776748
98554.63894252118
98554.64908705279
98554.65923059435
98554.66956706157
98554.64105499335
98554.65098453044
98554.66091722979
98554.67103030985
98554.64275481497
98554.65251516252
98554.66228183344
98554.67221885124
98554.64404016492
98554.65367552247
98554.6633194777
98554.6731260688
98554.64491053032
98554.65446419634
98554.66402805026
98554.67374852122
98554.64537010109
98554.65488574651
98554.66441175777
98554.67408688962
98554.78181910276
98554.92345370768
98554.99242021113
98555.02370800203
98555.04077323296
98555.05280791582
98555.06225644298
98555.07020703872
98555.07715982637
98555.08331627969
98555.0887648566
98555.09355205749
98555.09770644482
98555.10124779624
98555.10419099982
98555.10654766433
98555.10832686808
98555.10953599762
98555.11017508322
98554.92058812015
98554.97655271819
98555.01768172014
98555.03809905356
98555.04894444521
98555.05693695019
98555.06396470143
98555.07038164738
98555.07631180041
98555.08177628269
98555.08675617829
98555.09122784546
98555.09517212043
98555.09857571898
98555.10143033559
98555.10373129068
98555.10547636857
98555.10666537564
98555.1072937335
98555.001162891
98555.01368682335
98555.03396177702
98555.04632259412
98555.0531308491
98555.05857807446
98555.06388886333
98555.06913566226
98555.07426252111
98555.07917927092
98555.08379115889
98555.08802020285
98555.09180849393
98555.09511506498
98555.09791175423
98555.10017972704
98555.10190684695
98555.10308630022
98555.10370979812
98555.04909748107
98555.04190360193
98555.0456308775
98555.05008444238
98555.05361573228
98555.05736700763
98555.06160947151
98555.06615555349
98555.07081276816
98555.07541486745
98555.0798213113
98555.08392236453
98555.08763654396
98555.09090501479
98555.09368616699
98555.09595119959
98555.09768077065
98555.09886312897
98555.09948722774
98555.04901818086
98555.04290542442
98555.04363147025
98555.04623730367
98555.04917406545
98555.05268403185
98555.05676491118
98555.06120607669
98555.065801039
98555.07037300782
98555.07477522308
98555.07889199309
98555.0826354279
98555.0859404206
98555.08875974311
98555.09105988692
98555.09281778797
98555.09401898374
98555.09465090719
98555.02547985362
98555.02784923823
98555.0317754331
98555.03599781773
98555.04019070925
98555.04463061907
98555.04935893563
98555.05426079748
98555.05919520602
98555.06402655607
98555.06863494182
98555.07292104322
98555.07680617431
98555.08022994756
98555.08314721887
98555.08552512051
98555.08734051776
98555.0885786146
98555.08922671275
98554.99315242397
98555.00432024205
98555.01335021535
98555.02087397069
98555.02747018152
98555.03365822995
98555.03964668349
98555.0454684732
98555.05108676699
98555.05643653929
98555.06144589957
98555.0660476034
98555.07018396715
98555.07380811813
98555.07688346977
98555.07938248516
98555.08128526511
98555.08257890347
98555.08325187583
98554.95837805855
98554.9768309654
98554.99108457989
98555.00246660921
98555.01199494541
98555.02038914731
98555.02802887217
98555.03509365469
98555.04165640243
98555.04773164401
98555.0533045804
98555.05834831933
98555.0628333049
98555.06673204149
98555.07002114097
98555.07268197324
98555.07470050016
98555.07606751776
98555.07677379571
98554.92407463958
98554.94814152877
98554.96702957607
98554.98217240826