/*--------------------------------*- C++ -*----------------------------------*\
| =========                 |                                                 |
| \\      /  F ield         | OpenFOAM: The Open Source CFD Toolbox           |
|  \\    /   O peration     | Version:  2206                                  |
|   \\  /    A nd           | Website:  www.openfoam.com                      |
|    \\/     M anipulation  |                                                 |
\*---------------------------------------------------------------------------*/
FoamFile
{
    version     2.0;
    format      ascii;
    arch        "LSB;label=32;scalar=64";
    class       surfaceScalarField;
    location    "0.1";
    object      phi;
}
// * * * * * * * * * * * * * * * * * * * * * * * * * * * * * * * * * * * * * //

dimensions      [0 3 -1 0 0 0 0];

oriented        oriented;

internalField   nonuniform List<scalar> 
4432
(
5.372819074280287e-06
-5.372819226144747e-06
1.082316366615124e-05
-5.450344712988718e-06
1.637032506213701e-05
-5.547161312798945e-06
2.207548374786742e-05
-5.705158302911555e-06
2.800057231969383e-05
-5.925087891651064e-06
3.421252991091924e-05
-6.21195665135044e-06
4.078794856111561e-05
-6.575417471415492e-06
4.781622989574296e-05
-7.02827987655528e-06
5.540777694902648e-05
-7.591545233154179e-06
6.368560878619008e-05
-8.27782965299052e-06
7.286788421641049e-05
-9.18227312358601e-06
8.324213867672256e-05
-1.037420474776298e-05
9.494626539865619e-05
-1.170401948706646e-05
0.0001073564774981661
-1.241008129228264e-05
0.0001188247548346719
-1.146816167467514e-05
0.0001275665299990064
-8.741673141918386e-06
0.0001329071267106827
-5.340555840567313e-06
0.0001362728441156113
-3.365611928459054e-06
0.0001420898953388324
-5.817021858883208e-06
0.0001515950718631675
-9.438211837878768e-06
0.000133811765545141
8.78261832005294e-06
7.742117119581783e-05
5.489630602439617e-05
7.560619899729609e-05
5.39392458280414e-06
-1.076674396894632e-05
1.084988445289744e-05
-1.090630473107054e-05
1.640705751657822e-05
-1.110433431923539e-05
2.212203552678406e-05
-1.142013596185991e-05
2.805557197043093e-05
-1.185862369944346e-05
3.427447900802755e-05
-1.243086280303496e-05
4.085501805638318e-05
-1.315595539241974e-05
4.788621141478881e-05
-1.405947181416661e-05
5.547637845226944e-05
-1.518171048635536e-05
6.375315274484798e-05
-1.655460185153095e-05
7.289547894295923e-05
-1.832459724021319e-05
8.313893312002836e-05
-2.061759752651954e-05
9.467446460996198e-05
-2.323942212443195e-05
0.000107099477804484
-2.483495435297898e-05
0.0001190428105877837
-2.341139689428685e-05
0.0001287692804725693
-1.846805427178078e-05
0.0001357433955455533
-1.231468555570838e-05
0.0001415324359231464
-9.154371233798748e-06
0.0001460354085444304
-1.026510990425585e-05
0.0001418087147893036
-4.176976713463412e-06
0.0001047361966182132
3.782558555867623e-05
5.86700751320772e-05
9.965884203665912e-05
0.0001330887665478796
5.375521136230596e-06
-1.614226534380128e-05
1.080631775934886e-05
-1.633710160968397e-05
1.633928651205132e-05
-1.663730313217068e-05
2.202859444958076e-05
-1.710944368052482e-05
2.793336202614036e-05
-1.776339079123794e-05
3.411942409971074e-05
-1.861692415754512e-05
4.066175176429948e-05
-1.969828210494158e-05
4.764762375018041e-05
-2.104534256194128e-05
5.518172018963326e-05
-2.271580535296434e-05
6.338872837210769e-05
-2.476160823324233e-05
7.242542415869935e-05
-2.736129137503287e-05
8.248788472824193e-05
-3.067998028533271e-05
9.380529712139858e-05
-3.455667385255351e-05
0.0001061653752739627
-3.719488148776665e-05
0.0001183613275360465
-3.560725349089808e-05
0.0001288221366033757
-2.892882344092605e-05
0.0001377583146752655
-2.125086128874445e-05
0.0001471910759203089
-1.856260263206274e-05
0.0001670008665692832
-2.899804204260916e-05
0.000121536321550594
3.531772998865895e-05
8.544217525199716e-05
7.360068935616806e-05
4.384593748521823e-05
0.0001403050606956507
0.0001761634389879918
5.344257539027501e-06
-2.148652322427612e-05
1.073901375628912e-05
-2.173185822676059e-05
1.623505257888116e-05
-2.213334217986361e-05
2.188459189492388e-05
-2.275898296501525e-05
2.774488875705924e-05
-2.362368737840998e-05
3.388003864714837e-05
-2.475207355791545e-05
4.036273560094382e-05
-2.618097835379766e-05
4.72772335047523e-05
-2.795983950235707e-05
5.47227728630624e-05
-3.01613434718822e-05
6.281871363893226e-05
-3.285754765069195e-05
7.170679288582311e-05
-3.624936954542491e-05
8.156399754599251e-05
-4.053708768624381e-05
9.266502521307895e-05
-4.565750461276631e-05
0.0001049712740255446
-4.950096294196104e-05
0.0001175444389262505
-4.818034515810934e-05
0.0001293933532203558
-4.077772399878924e-05
0.0001414987434412563
-3.335622486638317e-05
0.0001573902262440107
-3.429526148351295e-05
0.0001242627521459454
-1.907709768499393e-06
0.0001088163050317702
5.052664682885934e-05
6.980331000465211e-05
0.0001123082820173134
3.46986655988975e-05
0.0001747039016546144
0.0002103615214011359
5.299599831464067e-06
-2.678612352951415e-05
1.064559349320241e-05
-2.707785246587252e-05
1.609098095549004e-05
-2.757873006498262e-05
2.168542401041194e-05
-2.835342620964156e-05
2.748392022318988e-05
-2.942218355892688e-05
3.354803850146678e-05
-3.081619160834046e-05
3.994718772133127e-05
-3.258012715375529e-05
4.676132195540602e-05
-3.477397310106139e-05
5.408267421049785e-05
-3.748269489806892e-05
6.202451988341156e-05
-4.079939250407358e-05
7.071613844878823e-05
-4.494098769419117e-05
8.031958822508704e-05
-5.014041764385225e-05
9.114668070057511e-05
-5.648436139363477e-05
0.0001033208308987173
-6.16749369124955e-05
0.0001163535741743129
-6.121303808176789e-05
0.0001299107846309321
-5.433491549373588e-05
0.0001457869634140615
-4.915317433711028e-05
0.0001489759094735222
-3.566597470818227e-05
0.0001213449669441924
2.613119044747159e-05
9.249351731135415e-05
7.929597366102007e-05
5.801041003313212e-05
0.0001465001941785497
2.888483294284145e-05
0.0002033073909989112
0.0002389202427396135
5.238926881149121e-06
-3.202505106577913e-05
1.052194930608517e-05
-3.236087570543794e-05
1.590180209806791e-05
-3.295858353278172e-05
2.142474064010776e-05
-3.387636521225794e-05
2.714311338859075e-05
-3.514055656154842e-05
3.311544074767698e-05
-3.678851904084143e-05
3.940732750905485e-05
-3.887201381968729e-05
4.609388006230154e-05
-4.146052539321224e-05
5.326029720624824e-05
-4.464911168279988e-05
6.101289019995887e-05
-4.855198529006712e-05
6.946745697358788e-05
-5.339555478348559e-05
7.87622526416903e-05
-5.943506816711264e-05
8.922672794788077e-05
-6.694856395840135e-05
0.0001011628282673632
-7.361085809848918e-05
0.0001147991129027797
-7.48493000698427e-05
0.0001314492166222188
-7.098491789387923e-05
0.000162495666359723
-7.826622410581438e-05
0.0001310198065778384
-6.33204589729616e-06
0.0001093554661413833
4.76635398507444e-05
7.622047509623676e-05
0.000112260710543411
4.805050212575071e-05
0.0001743795509357062
2.543480055719266e-05
0.0002255359224161967
0.0002641397474936712
5.163315916609706e-06
-3.718836779274949e-05
1.036938602868779e-05
-3.756694686410801e-05
1.566896573601901e-05
-3.825816418653938e-05
2.110490784672228e-05
-3.931230807963176e-05
2.672679984260133e-05
-4.076244912723355e-05
3.25900915674533e-05
-4.265181117257428e-05
3.8756704870892e-05
-4.503862739154362e-05
4.529715035316669e-05
-4.800097104521829e-05
5.229150635961905e-05
-5.164346787930626e-05
5.983917444869642e-05
-5.609965387722423e-05
6.803494246207519e-05
-6.159132388995404e-05
7.696736079909376e-05
-6.836731410488624e-05
8.693868917726325e-05
-7.691958746227198e-05
9.843275259505981e-05
-8.510474786477189e-05
0.0001127109674755705
-8.912749452924008e-05
0.0001313632869044241
-8.95492136799165e-05
0.0001300649484691162
-7.556581166399772e-05
0.0001131063844822858
1.06799374442874e-05
8.78337844567377e-05
7.26888214527865e-05
6.140235261323031e-05
0.0001384620084562543
4.080561710868455e-05
0.0001947030940565895
2.482226906121622e-05
0.0002412438770830265
0.0002888163127602915
5.0821912934007e-06
-4.227055994639416e-05
1.019632890015971e-05
-4.268108544823989e-05
1.540241088294503e-05
-4.346424710183273e-05
2.073815191247871e-05
-4.464804992720529e-05
2.625056609694364e-05
-4.62748640062804e-05
3.199222124974848e-05
-4.839346691167764e-05
3.802143618880089e-05
-5.106784284369075e-05
4.440429426103509e-05
-5.438382963005691e-05
5.121513332196597e-05
-5.845430759279353e-05
5.855642137850496e-05
-6.344094295565353e-05
6.649344674215601e-05
-6.952835077585104e-05
7.503190968347227e-05
-7.690557510165549e-05
8.434973531999397e-05
-8.623706756294102e-05
9.508075538250162e-05
-9.583556374413952e-05
0.0001096304456501676
-0.0001036769591979785
0.0001332592189617213
-0.0001119244817713351
0.0001112728795344873
-5.939492930276349e-05
9.462064573300531e-05
2.676376434172944e-05
6.941255185084842e-05
9.766418559575885e-05
4.898672922252717e-05
0.0001587422242047405
3.639426151705072e-05
0.0002071134578189691
2.804923995855898e-05
0.0002494289896638731
0.0003167496335782057
2.312009751039506e-06
-2.211154344661526e-06
5.473959238730705e-06
-3.061196008834553e-06
8.117850292623439e-06
-2.543308921735892e-06
9.841504741222601e-06
-1.623269695371149e-06
1.069620615290235e-05
-7.545374655303799e-07
1.088274879615085e-05
-8.660900483317114e-08
1.060825978410096e-05
3.741947082743139e-07
1.003301000937922e-05
6.747384254279399e-07
9.273088919149188e-06
8.592090824259957e-07
8.40647527019486e-06
9.657199065017488e-07
7.483305634053947e-06
1.022113748755786e-06
6.534699894032761e-06
1.047407061209683e-06
5.579205883002684e-06
1.054171483063386e-06
4.627118331643082e-06
1.050659681379132e-06
3.683340871881685e-06
1.042262345817038e-06
2.749279108857842e-06
1.032477093616258e-06
1.824139203637797e-06
1.023503070490973e-06
9.063387339586822e-07
1.016129361857476e-06
1.004653774154398e-06
2.344441472636317e-06
-4.454726210727422e-06
5.8243650227095e-06
-6.440354404312618e-06
8.663131523609286e-06
-5.281486121421282e-06
1.047695317769363e-05
-3.336704279230773e-06
1.134395254198854e-05
-1.521373610727133e-06
1.150260351550433e-05
-1.453288975060587e-07
1.118115434246271e-05
7.953461504346008e-07
1.05529349803421e-05
1.402442952811294e-06
9.738798181839349e-06
1.772630712521144e-06
8.818738188605829e-06
1.984883381630983e-06
7.843682927909218e-06
2.096110666173077e-06
6.845027091143144e-06
2.144861981446472e-06
5.841333186445799e-06
2.15654076201328e-06
4.842765969584317e-06
2.147797024658799e-06
3.854016317101805e-06
2.129494930587988e-06
2.876220142757874e-06
2.108686661052886e-06
1.908206088993187e-06
2.089878430217967e-06
9.46984432201819e-07
2.075678376041245e-06
2.049951811754558e-06
2.109041383346619e-06
-6.462863978341432e-06
5.970930746158347e-06
-1.020145292460137e-05
8.977768719251324e-06
-8.187719821918256e-06
1.079397104487057e-05
-5.052514117444629e-06
1.159708745251062e-05
-2.22432736947103e-06
1.168461796515456e-05
-1.329322870819044e-07
1.130578167667187e-05
1.2738791121986e-06
1.063569037628352e-05
2.172013433566156e-06
9.7925366754592e-06
2.71506347501119e-06
8.853004274081738e-06
3.023513876115065e-06
7.865080774494462e-06
3.182970797769047e-06
6.858024899389242e-06
3.250712192216574e-06
5.848928906536847e-06
3.264307597199782e-06
4.84696489308521e-06
3.248326781273719e-06
3.856156085926269e-06
3.218782413091587e-06
2.877179218164843e-06
3.186072729892382e-06
1.908531037887108e-06
3.156883792711829e-06
9.472402187309153e-07
3.135292657424759e-06
3.095501960382147e-06
1.79228890512757e-06
-8.154193204976486e-06
6.218055281297523e-06
-1.452638729434312e-05
9.478743003680457e-06
-1.134778001153217e-05
1.127865776142683e-05
-6.752027654247894e-06
1.196971243130358e-05
-2.815219647426199e-06
1.194203498316655e-05
-5.333155445956618e-09
1.147078753681858e-05
1.844815567289891e-06
1.073610994170522e-05
3.006161807920824e-06
9.850102816728361e-06
3.700341326103007e-06
8.883221290241317e-06
4.089485540052479e-06
7.878382231085021e-06
4.28673892263015e-06
6.861297219309997e-06
4.366584323455582e-06
5.846674150142928e-06
4.377594567013726e-06
4.842114706295695e-06
4.351445249773692e-06
3.850613208601874e-06
4.308756032380264e-06
2.872166152796107e-06
4.262922567918553e-06
1.904822646213875e-06
4.222578188638035e-06
9.454100138663259e-07
4.193022610715803e-06
4.139215890213003e-06
1.625382496006934e-06
-9.678536060249444e-06
6.650039834445544e-06
-1.945015488535485e-05
1.021472363548937e-05
-1.481180486898039e-05
1.195626075700428e-05
-8.393151619906913e-06
1.247213143613908e-05
-3.230927881037685e-06
1.227993898279629e-05
2.8677444839718e-07
1.168461831260887e-05
2.539815527975731e-06
1.08641699038106e-05
3.92607013001e-06
9.92232013407561e-06
4.74145084837424e-06
8.920128750611114e-06
5.190756399608438e-06
7.893626696124031e-06
5.412159805055344e-06
6.863830338535694e-06
5.495157954580803e-06
5.842319317531237e-06
5.497760009743222e-06
4.83465767925049e-06
5.457656750335789e-06
3.842509139941259e-06
5.399367777405712e-06
2.864994303071667e-06
5.338831470143716e-06
1.899583309851534e-06
5.286331523260607e-06
9.427332805236763e-07
5.248181556883412e-06
5.180244832036833e-06
2.424431562953227e-06
-1.200182417940872e-05
7.645771159149782e-06
-2.457053265440993e-05
1.13079480502406e-05
-1.837328390186591e-05
1.285498085560897e-05
-9.839757152935049e-06
1.310513312420916e-05
-3.380918118826819e-06
1.269333864906976e-05
7.98475495894003e-07
1.194102142439144e-05
3.3917995238048e-06
1.101505356927117e-05
4.95148386363324e-06
1.000602821341011e-05
5.84972165223407e-06
8.96172715289798e-06
6.334122911735197e-06
7.909631678457281e-06
6.563160536730728e-06
6.864949545500805e-06
6.638604295516442e-06
5.835497920597371e-06
6.625853424982076e-06
4.824408315282853e-06
6.567283975200693e-06
3.831759671645868e-06
6.490467711887262e-06
2.855629958121511e-06
6.413343604814317e-06
1.892795287183999e-06
6.347497056492292e-06
9.392344470294553e-07
6.300040036825441e-06
6.217763942692728e-06
6.28765440168288e-06
-1.818820798290863e-05
1.037095948243143e-05
-2.855278964255542e-05
1.310287416035835e-05
-2.100445629642913e-05
1.404313965102521e-05
-1.067957777446347e-05
1.387702886083818e-05
-3.114645648448563e-06
1.317497795940885e-05
1.600422735334696e-06
1.223009106083098e-05
4.436338054555316e-06
1.118248497614245e-05
6.098518657758788e-06
1.009664533672631e-05
7.034789111956477e-06
9.005047217241184e-06
7.524769171068547e-06
7.924465807097669e-06
7.742630530121011e-06
6.863400180333641e-06
7.798418140406249e-06
5.825398013066636e-06
7.762482065636825e-06
4.810842635681467e-06
7.680362225754959e-06
3.818029283841745e-06
7.581718080507945e-06
2.843862178575657e-06
7.485879239320121e-06
1.884333567240295e-06
7.405342976320303e-06
9.348779701619724e-07
7.347780020586134e-06
7.250912629056663e-06
1.492447974301026e-05
-3.301166365862861e-05
1.646489942428758e-05
-2.999213232932021e-05
1.627898885452175e-05
-2.071776302994268e-05
1.573177090330678e-05
-1.003189840077845e-05
1.480692105034957e-05
-2.08963309647544e-06
1.371344756057588e-05
2.793783755842267e-06
1.254163275077917e-05
5.707790992308793e-06
1.135774905826268e-05
7.381815650486267e-06
1.018863506796073e-05
8.303114939265533e-06
9.046395218339283e-06
8.766041213447415e-06
7.935676002235551e-06
8.952222714545833e-06
6.857553058872694e-06
8.975274221538146e-06
5.810929529303858e-06
8.907717597521457e-06
4.793228116289612e-06
8.79657265435818e-06
3.800827828277037e-06
8.67254211144214e-06
2.829369567083997e-06
8.555693291547833e-06
1.873998082245327e-06
8.459019580160228e-06
9.295435015963648e-07
8.390506712171197e-06
8.27871385132769e-06
1.057778332480725e-05
-5.284834474890161e-05
2.125815904375908e-05
-5.336146273155645e-05
3.209833940483899e-05
-5.430442897172282e-05
4.319840820547137e-05
-5.574812011332733e-05
5.465474901668296e-05
-5.773120606974432e-05
6.657072127827771e-05
-6.030944031885531e-05
7.906087657221433e-05
-6.355799924986036e-05
9.225304064264294e-05
-6.757599492125805e-05
0.0001062982599934292
-7.249952848515552e-05
0.0001213379268247989
-7.848061189524471e-05
0.0001376268885594834
-8.581731502796648e-05
0.0001554017316666935
-9.467991861733658e-05
0.0001752373733080267
-0.0001060719253921347
0.0001978388022227925
-0.0001184366162267574
0.0002248515839664352
-0.0001305881883246374
0.0002687110885057332
-0.0001490599925555461
0.0001966397245297844
1.105607852403203e-05
0.0001399338912071007
8.247142916805468e-05
9.7532458002647e-05
0.0001397491934733415
7.874495590049136e-05
0.0001775238881666763
8.260168196296816e-05
0.0002032996532412759
0.0001116786049391632
0.0002204457847787858
0.0002223099757190319
0.0002062441137615259
1.009561448056656e-05
-6.294396116328795e-05
2.028206743413636e-05
-6.35479177217419e-05
3.061419126543292e-05
-6.46365547939919e-05
4.116675677238486e-05
-6.630068748547705e-05
5.201953858845291e-05
-6.858398960417986e-05
6.325655106762013e-05
-7.154645440626904e-05
7.49677940934176e-05
-7.526924388141765e-05
8.725061137150378e-05
-7.985881398192455e-05
0.0001002123591827677
-8.546127847099737e-05
0.0001139668680593449
-9.22351234675325e-05
0.0001286682280204229
-0.0001005186777881078
0.0001444451079035843
-0.0001104561662408078
0.0001620344120408382
-0.0001236604317840225
0.0001821282858827325
-0.0001385302848177783
0.0002061147714575012
-0.0001537442502991884
0.000137412751518015
-0.0001053815172609646
0.0001155392279695201
3.074436349758242e-05
8.378508552169863e-05
0.0001129872087630075
6.7735891492715e-05
0.0001550531947026609
6.900653561125271e-05
0.000175773298999136
8.691345576001215e-05
0.0001851272513122164
0.0001188880630187698
0.0001884142109159272
0.000184986028953377
0.0001562855096879624
9.55461130709119e-06
-7.249857469298149e-05
1.918153097763177e-05
-7.317483971426168e-05
2.892878647130481e-05
-7.43838125451574e-05
3.885499822800766e-05
-7.622690133029587e-05
4.902178888114421e-05
-7.875078213826438e-05
5.949213894944302e-05
-8.201680619114887e-05
7.033001515381905e-05
-8.610712177289127e-05
8.159981670879604e-05
-9.112861739560469e-05
9.336538086110464e-05
-9.722684486719452e-05
0.0001056876050257203
-0.0001045573503047682
0.0001186298167868266
-0.0001134608918835263
0.0001321873950896984
-0.0001240129821537642
0.0001470825377600083
-0.0001385547820557262
0.0001628699723671132
-0.0001542686583281384
0.0001795478802676001
-0.000163824206722802
0.0001151703818164248
-4.440481374021554e-05
7.443125684778445e-05
7.005945319537827e-05
5.47117888448628e-05
0.0001318885993337382
5.142654514793894e-05
0.0001579137563705227
6.049279062275812e-05
0.0001664934752448259
7.795101887755378e-05
0.0001676046361964051
0.0001019284369251798
0.0001644870695543569
0.000154323237851926
0.0001327145369236365
8.950513359144098e-06
-8.144909045858482e-05
1.795822677892053e-05
-8.218255560642363e-05
2.705828899906382e-05
-8.348387711839196e-05
3.629424065188236e-05
-8.546285507918587e-05
4.570985852068318e-05
-8.81664017820433e-05
5.534711441442622e-05
-9.165406358323505e-05
6.524443313580997e-05
-9.600444187348559e-05
7.543433277520831e-05
-0.0001013185185165233
8.59390030101758e-05
-0.0001077315169097102
9.676642827629751e-05
-0.0001153847777136501
0.0001078941919451799
-0.0001245886569795346
0.0001192263128474058
-0.0001353442231762207
0.0001315026393824862
-0.0001508303186151491
0.0001438087704834367
-0.0001664245550148863
0.0001490464636043473
-0.000165067237076663
7.921398978278632e-05
2.300849220581898e-05
4.683840279642673e-05
0.0001012933384772106
3.748645088918248e-05
0.0001407701004339896
4.148358537006177e-05
0.0001537435175729253
5.252810580791196e-05
0.0001554248344451972
6.77735583496214e-05
0.000152426517981306
8.684946242105525e-05
0.0001455382047186307
0.0001328066684587048
0.0001085280921111313
8.299140275156341e-06
-8.974823321354245e-05
1.664144460195713e-05
-9.052486240399517e-05
2.504850908343882e-05
-9.189094384914201e-05
3.354934413084646e-05
-9.396369197553645e-05
4.217097731039281e-05
-9.678803631977639e-05
5.09359588330671e-05
-0.0001004190460258981
5.985971974174789e-05
-0.0001049282034562815
6.894704112180972e-05
-0.0001104058405848866
7.818505756956301e-05
-0.0001169695343258692
8.753944018926261e-05
-0.0001247391615810261
9.6916869440095e-05
-0.0001339660865793797
0.0001061694297753948
-0.0001445958056590086
0.0001158836533326351
-0.000160543677446372
0.0001254652015019735
-0.000175316200940721
5.64462927907621e-05
-0.0001342549870212774
4.01094349294086e-05
3.729043923490393e-05
2.699327144458976e-05
0.0001137274475748748
2.720463855907905e-05
0.0001403642936786581
3.475990385418442e-05
0.0001461861362390672
4.555386374295451e-05
0.0001447205095680265
5.830547681039029e-05
0.0001398146343717017
7.240210249394365e-05
0.0001316095848993073
0.0001195161240823876
8.587555010084578e-05
7.614626972317612e-06
-9.736286257689123e-05
1.525923919051426e-05
-9.816947687719725e-05
2.294280723278202e-05
-9.957451377340576e-05
3.068095756932006e-05
-0.0001017018436085563
3.848571621021023e-05
-0.0001045927955656025
4.636280143510302e-05
-0.0001082961312459492
5.430852390911222e-05
-0.0001128739255669824
6.230594871246484e-05
-0.0001184032649926898
7.031682985770047e-05
-0.0001249804153699975
7.82814186702516e-05
-0.0001327037505947669
8.606663956523008e-05
-0.0001417513066726168
9.354529550959352e-05
-0.0001520734074471474
0.0001008859617420081
-0.0001678835058512765
0.0001101059560684476
-0.0001800219901809146
4.73236762288288e-05
-7.549369948104835e-05
2.508635635895586e-05
5.837217064037542e-05
1.828567375186455e-05
0.0001201712964499842
2.179160999962878e-05
0.0001368355856816563
2.966928805096532e-05
0.0001384058322664969
3.90894713291372e-05
0.0001354493432011525
4.925014083510956e-05
0.0001298277272486204
5.935968099348145e-05
0.0001216858593475916
0.0001109575420216893
6.810953343232821e-05
6.909964301484148e-06
-0.0001042728289208316
1.383785208802864e-05
-0.0001050973663887915
2.078154152549605e-05
-0.0001065182043742521
2.774489266070754e-05
-0.0001086651951180526
3.472711574905292e-05
-0.0001115750181487114
4.172015556831527e-05
-0.0001152891698285079
4.870549769211297e-05
-0.0001198592660656362
5.565077600991855e-05
-0.0001253485417095866
6.25018807061847e-05
-0.0001318315188474067
6.918855426900972e-05
-0.0001393904233021829
7.556088705823839e-05
-0.0001481236375479364
8.154906652975447e-05
-0.0001580604752720238
8.705625398929448e-05
-0.0001733543193730135
9.45089900887125e-05
-0.000182743565793854
4.778110828665959e-05
-3.075967526238638e-05
1.974435041200719e-05
8.544216630752813e-05
1.426943291684465e-05
0.0001254791714590847
1.824849844497767e-05
0.0001329333634366996
2.510201569179747e-05
0.0001317020704467731
3.288498789670705e-05
0.0001278430226923395
4.083960030219227e-05
0.0001220608038441621
4.827647997854211e-05
0.0001144411402785696
0.0001050452870525693
5.438241056556712e-05
6.196779968221451e-06
-0.0001104696101327749
1.24008044195267e-05
-0.0001113013915492424
1.860063573081366e-05
-0.0001127180356354686
2.479021571691487e-05
-0.0001148547740951938
3.095827650918072e-05
-0.0001177430769509712
3.708604903932947e-05
-0.0001214169396548928
4.314415581691136e-05
-0.0001259173698822799
4.909013303344263e-05
-0.0001312945162030697
5.486147007244781e-05
-0.0001376028537091783
6.038712032980682e-05
-0.0001449160717356761
6.55111941953271e-05
-0.0001532477083031334
7.022702196627433e-05
-0.0001627751450098805
7.436679313334624e-05
-0.0001774210822728557
8.035358564028932e-05
-0.0001841850663608636
3.596429745195676e-05
1.176618789545204e-05
1.300441195540695e-05
0.0001077031971845843
1.05667625630828e-05
0.0001278976913963706
1.46480951806735e-05
0.0001289879825923338
2.049307120762659e-05
0.0001260326836503827
2.687592578676309e-05
0.0001216483289348442
3.316686732552461e-05
0.0001159623301623457
3.883605791782149e-05
0.0001089656819380413
0.0001007310223198832
4.334411939068116e-05
5.485147479399047e-06
-0.0001159547569511264
1.096841350926926e-05
-0.0001167846561523799
1.643087952143618e-05
-0.0001181804992862268
2.185845016329921e-05
-0.0001202823413072776
2.723164747739996e-05
-0.0001231162698667211
3.252374413716353e-05
-0.0001267090313669471
3.769767681269087e-05
-0.0001310912975878253
4.270469460965971e-05
-0.0001363015294851405
4.74790107068158e-05
-0.0001423771658141833
5.195408074760656e-05
-0.0001493911375377913
5.597504945613012e-05
-0.0001572686700994959
5.960389363114008e-05
-0.0001664027915308337
6.263547904655444e-05
-0.0001803203616154952
6.469596261678709e-05
-0.0001828789097079884
2.009524562312676e-05
5.41607683186219e-05
5.158034664211899e-06
0.0001222513086640053
6.184287131156159e-06
0.0001269612107386772
1.051235829403496e-05
0.0001248287225082368
1.572055836788502e-05
0.0001210115609505635
2.108187456705536e-05
0.000116479184501501
2.617325446597331e-05
0.0001110644310952985
3.064289251307202e-05
0.0001046895896544553
9.741996066778128e-05
3.414712238099725e-05
4.78350324675499e-06
-0.0001207382556565101
9.55758760883493e-06
-0.0001215587350234207
1.429765740070719e-05
-0.0001229205625632226
1.89833999813677e-05
-0.000124968076346726
2.358920399680496e-05
-0.0001277220656182698
2.808270832278248e-05
-0.000131202527324776
3.242143126995656e-05
-0.0001354300125491452
3.655252256364131e-05
-0.0001404326134875115
4.040993328858629e-05
-0.0001462345696137934
4.393248071171315e-05
-0.0001529136762239529
4.69689407182994e-05
-0.0001603051161946939
4.963404168707739e-05
-0.0001690666587717977
5.167476104637537e-05
-0.0001821174798058356
3.88084102191065e-05
-0.0001712068492356394
-3.962365443256551e-07
9.156038818161375e-05
-2.434887676006924e-06
0.0001242121053991001
1.175482722786531e-06
0.000123503459552792
6.049756678306836e-06
0.0001201386970905724
1.096081014508722e-05
0.00011629178478883
1.559419720360661e-05
0.0001120387376878003
1.980579485214914e-05
0.0001070459198251199
2.342541180892109e-05
0.0001012627541373483
9.477400846693776e-05
2.626368948567694e-05
4.0987204041292e-06
-0.0001248369643493401
8.181958116527694e-06
-0.0001256419599532851
1.222124284104696e-05
-0.0001269598334538124
1.619176327514346e-05
-0.0001289385820708011
2.006362902802467e-05
-0.0001315939164062787
2.380077054102778e-05
-0.0001349396544958882
2.735687587593452e-05
-0.0001389861043922694
3.067601755683025e-05
-0.0001437517425519563
3.369325458700614e-05
-0.000149251794302059
3.634883686304944e-05
-0.0001555692425420222
3.85011458034937e-05
-0.0001624573994678969
4.031690358538703e-05
-0.0001708811478656179
4.192286421164692e-05
-0.0001831674602890455
-1.449008452616843e-05
-0.0001316651859644311
-2.24469250028786e-05
9.709378637148675e-05
-1.17584984787271e-05
0.0001135544281416613
-4.224032716445789e-06
0.0001161412997737047
1.845998410201212e-06
0.0001142584709919697
6.553853650920246e-06
0.0001117760477136146
1.055392007805623e-05
0.0001082311136463754
1.403324108851316e-05
0.0001037588183025854
1.698755997639009e-05
9.850028760044911e-05
9.261683682284032e-05
1.933616697679999e-05
3.436315421086395e-06
-0.0001282732470237378
6.852402243738963e-06
-0.0001290580128451053
1.021783156242687e-05
-0.0001303252275708726
1.350493705576226e-05
-0.0001322256511777827
1.668114424853101e-05
-0.0001347700867693367
1.970818641554848e-05
-0.0001379666601072026
2.253717923265176e-05
-0.0001418150596990095
2.510974430745173e-05
-0.0001463242677609754
2.736139345301261e-05
-0.0001515033992036615
2.922575248308082e-05
-0.0001574335442135419
3.05769112708911e-05
-0.0001638084747920519
3.158226862389294e-05
-0.0001718851996859198
3.396743352885798e-05
-0.0001833627616535723
-4.006806742169268e-05
-7.393123269627205e-05
-2.582042705021092e-05
8.152304835582105e-05
-1.367343076595875e-05
0.0001015180631937672
-5.917057553204787e-06
0.0001085686312860286
-8.768638823422658e-07
0.0001094092003610622
2.92767015218626e-06
0.0001081631234613572
6.075397728588706e-06
0.0001052748886490736
8.8014400473474e-06
0.0001012239911945694
1.115580436849814e-05
9.633680952891625e-05
9.086344614987337e-05
1.309973383123748e-05
2.800970282427786e-06
-0.000131074153750345
5.577967378498913e-06
-0.000131834945289446
8.300876277550235e-06
-0.0001330480707220842
1.094083465968419e-05
-0.0001348655431499137
1.346396041209505e-05
-0.0001372931469851195
1.583094890055378e-05
-0.0001403335852563898
1.799180614094239e-05
-0.0001439758532635586
1.988687818669992e-05
-0.0001482192736944294
2.144742967775343e-05
-0.0001530638826275987
2.258982103067622e-05
-0.0001585758560878879
2.321956011113196e-05
-0.0001644381232177492
2.343889720320636e-05
-0.0001721032050826823
2.499022918029184e-05
-0.0001830240972608437
-1.555260215012966e-05
-3.465700208968524e-05
-1.344547402917339e-05
7.933182136173954e-05
-8.6373252285751e-06
9.687095881826831e-05
-4.762834416455635e-06
0.000104882221331471
-2.104256316684904e-06
0.0001069411186185751
8.68895738079438e-08
0.0001061625918641998
2.072297243374864e-06
0.000103479907860307
3.960451431546158e-06
9.952601574551661e-05
5.737054613306735e-06
9.475012253419571e-05
8.94617304485686e-05
7.328413701367934e-06
2.196695952116194e-06
-0.0001332707361748316
4.3662547461935e-06
-0.0001340043895486319
6.481779182972952e-06
-0.0001351634794795142
8.51485246419481e-06
-0.0001368985001163589
1.043191709916352e-05
-0.0001392100968268939
1.219414221077675e-05
-0.0001420956984685257
1.375371756318904e-05
-0.0001455353137048213
1.505149192618678e-05
-0.0001495169275994579
1.600659612290178e-05
-0.0001540188593945296
1.648534031367333e-05
-0.0001590544585017259
1.641083996664802e-05
-0.0001643634216609589
1.557622771176725e-05
-0.0001712672091593592
1.534457858242723e-05
-0.0001814659370122083
-1.519198989174943e-06
-1.856232153602127e-05
-1.856181205322012e-06
7.981652129136173e-05
-1.506101600283218e-06
9.670115755403364e-05
-2.220345135492856e-06
0.0001057850915569031
-2.566498944425189e-06
0.0001074767582153392
-2.421796214690721e-06
0.0001062073487754519
-1.783581170409669e-06
0.0001030310065689923
-7.528940799807945e-07
9.868446630448962e-05
5.031388392863368e-07
9.368303911744064e-05
8.834533571484034e-05
1.808284796197503e-06
1.627551763140675e-06
-0.0001348981083335488
3.224389222750131e-06
-0.0001356010465953454
4.770748961566273e-06
-0.0001367096576942164
6.240304042949476e-06
-0.0001383678729866845