/*--------------------------------*- C++ -*----------------------------------*\
| =========                 |                                                 |
| \\      /  F ield         | OpenFOAM: The Open Source CFD Toolbox           |
|  \\    /   O peration     | Version:  2206                                  |
|   \\  /    A nd           | Website:  www.openfoam.com                      |
|    \\/     M anipulation  |                                                 |
\*---------------------------------------------------------------------------*/
FoamFile
{
    version     2.0;
    format      ascii;
    arch        "LSB;label=32;scalar=64";
    class       volScalarField;
    location    "0.1";
    object      rho;
}
// * * * * * * * * * * * * * * * * * * * * * * * * * * * * * * * * * * * * * //

dimensions      [1 -3 0 0 0 0 0];

internalField   nonuniform List<scalar> 
2268
(
1001.360165510245
1001.360165641401
1001.360165801355
1001.360165997331
1001.360166237849
1001.360166533908
1001.360166900792
1001.360167359647
1001.360167942554
1001.36016868145
1001.360169716118
1001.360170504163
1001.35900601651
1001.355755866103
1001.350517139679
1001.343908568491
1001.336148478064
1001.328044563741
1001.318572900798
885.4483661239633
138.1969957667031
1.123075930010131
1.027649059931899
1001.36016653606
1001.360166682216
1001.360166868785
1001.360167105565
1001.360167402924
1001.36016777463
1001.360168240006
1001.3601688258
1001.360169573427
1001.36017052106
1001.360171834132
1001.360172763966
1001.358711084678
1001.35475065075
1001.34881820165
1001.342120103471
1001.334833233072
1001.328365255218
888.7758557341018
167.168203346702
2.111593211126102
1.096238820351805
1.015726850204987
1001.360167562062
1001.360167720812
1001.360167930269
1001.36016820228
1001.36016854871
1001.360168985618
1001.360169535544
1001.360170229303
1001.360171115249
1001.360172231241
1001.360173760914
1001.36017473593
1001.358282648088
1001.353233902276
1001.346150255786
1001.338549225729
1001.331276644673
994.9381578393386
451.1118680901647
4.008537091926407
1.150734233137528
1.067223172276873
1.006936277951775
1001.360168605207
1001.360168776038
1001.360169008026
1001.360169314778
1001.360169709443
1001.360170209966
1001.360170841326
1001.360171636922
1001.360172649445
1001.360173911589
1001.360175619069
1001.360176534765
1001.357760247716
1001.351427580657
1001.342942715461
1001.334569929439
1001.32727008042
622.265268095564
30.09586179803784
1.177691797890194
1.11038921869972
1.045956167042848
1.00051120473221
1001.360169726175
1001.360169909304
1001.3601701647
1001.360170507397
1001.3601709515
1001.36017151619
1001.36017222771
1001.360173120104
1001.360174247092
1001.360175631944
1001.360177477479
1001.36017820929
1001.357132367779
1001.349322438727
1001.339362649702
1001.330243167084
849.3217259490401
142.4836912127304
1.197296760933796
1.137435708747729
1.08070260535586
1.029955273178782
0.9958179790748347
1001.360171031025
1001.360171226527
1001.360171505362
1001.360171883405
1001.360172375018
1001.360172999426
1001.360173782364
1001.360174756157
1001.360175972033
1001.360177441026
1001.36017937109
1001.360179771223
1001.356393813642
1001.346964612891
1001.335455064454
1001.325568158412
388.5242724318834
1.220767988005159
1.158140245430106
1.104498920320691
1.057151654030255
1.017712559818152
0.9924418048193971
1001.360172581241
1001.360172786144
1001.360173082182
1001.360173485446
1001.360174009731
1001.360174673111
1001.360175499369
1001.360176517738
1001.360177775165
1001.360179271482
1001.360181220401
1001.360181127891
1001.355554919613
1001.344436279273
1001.331382408973
785.0974287187951
90.05034416651378
1.182480766087835
1.123424050992212
1.076591754055189
1.038258902779496
1.008481196849641
0.9900969948173125
1001.360174259814
1001.360174465934
1001.36017476507
1001.36017517335
1001.360175703826
1001.360176373179
1001.360177203154
1001.360178220146
1001.360179466762
1001.360180936013
1001.360182847531
1001.360182094075
1001.354617330626
1001.341871152936
1001.327554838408
480.5926440746792
2.155058747708577
1.147645393020428
1.092794679348741
1.053417018597852
1.023441114805884
1.00167010203218
0.9885036365384365
0.9829048244239114
0.9829051935263717
0.9829054797934232
0.9829057619551849
0.9829060075132531
0.9829061837655333
0.9829062912731888
0.9829063416806487
0.9829063644519819
0.9829063785809162
0.9829063955067779
0.9829064118573929
0.9829064264871967
0.9829064371503008
0.9829064497239056
0.9829064667180836
0.9829064912284453
0.9829065023030259
0.9829064195287321
0.9829044284076323
0.9829047356222401
0.9829050266465527
0.9829053289469233
0.9829055935778767
0.9829057822019249
0.9829058991165203
0.9829059563341117
0.9829059840290622
0.9829060006767562
0.9829060194873482
0.9829060362809428
0.9829060522696532
0.9829060649549175
0.9829060812578174
0.982906103202661
0.982906132366546
0.9829061388238509
0.9829059959820583
0.9829038364387757
0.9829041456445538
0.9829044754524996
0.9829048174569308
0.9829051126250324
0.9829053246597496
0.98290545942101
0.9829055296149841
0.982905565398121
0.9829055868189591
0.9829056077045077
0.9829056257226234
0.9829056426691738
0.9829056571451791
0.9829056756806959
0.9829057004565369
0.982905731374798
0.9829057343613058
0.982905591657835
0.9829031434461918
0.9829035075995112
0.9829039080128483
0.982904302495378
0.9829046342280661
0.9829048737929621
0.9829050280234932
0.9829051126233644
0.9829051570349242
0.9829051832432714
0.9829052063673742
0.982905225668311
0.9829052437661326
0.9829052598981204
0.9829052803990946
0.9829053072928335
0.9829053398877894
0.982905340438688
0.9829051979174699
0.9829023423694191
0.9829028263704757
0.9829033235333712
0.9829037802277371
0.9829041509261189
0.982904418483023
0.9829045937794071
0.9829046932827522
0.9829047467818425
0.9829047785271806
0.9829048046950245
0.9829048259911216
0.982904845938349
0.9829048645908443
0.9829048874250681
0.9829049163936857
0.9829049504493739
0.9829049501625196
0.9829048049591235
0.9829015354429668
0.9829021730379716
0.9829027609041314
0.9829032794814454
0.9829036944720899
0.9829039921844841
0.9829041872342902
0.9829042998022007
0.9829043610033161
0.9829043977084101
0.9829044264924622
0.9829044497523218
0.9829044716062127
0.9829044928039081
0.9829045183847793
0.9829045502620277
0.9829045868505385
0.9829045858126686
0.9829044301545944
0.9829013705176921
0.9829017796532823
0.9829022749373734
0.9829027912128939
0.9829032291399624
0.982903553701546
0.9829037709479692
0.9829038995362923
0.9829039724293928
0.9829040172431978
0.982904051012532
0.9829040781098171
0.9829041033296548
0.9829041283050231
0.9829041574256026
0.9829041926432126
0.982904231115535
0.9829042270438243
0.9829040937137195
0.9829061139285739
0.9829023413585261
0.9829020405592137
0.9829023678009593
0.9829027276685099
0.9829030289832827
0.982903245181291
0.9829033828542607
0.9829034690813654
0.9829035273724973
0.9829035722316972
0.9829036088600572
0.9829036418263283
0.9829036732626124
0.9829037062416063
0.9829037423737287
0.9829037771184563
0.9829037805319468
0.9829036675254518
1001.360173967989
1001.360174168323
1001.36017446073
1001.360174860379
1001.360175379364
1001.360176032406
1001.360176838234
1001.360177818855
1001.360179009569
1001.360180394181
1001.360182203021
1001.360180562784
1001.353547017774
1001.33925427367
917.5902909031151
186.6667147411652
1.170065839631136
1.092630987039986
1.047576426870674
1.021792072165895
1.004820149523292
0.9935921514368702
0.9869967591969153
1001.360175722253
1001.360175928892
1001.360176231596
1001.360176648075
1001.360177189082
1001.360177867391
1001.360178698877
1001.360179701039
1001.360180905651
1001.360182276323
1001.360184081326
1001.360180748712
1001.351105496508
1001.333482163933
549.1761754058261
8.025469767266502
1.112790711925251
1.049648737985171
1.018800625945485
1.003064663178715
0.9939231454414708
0.9884281128311171
0.9852956679089553
1001.360177293048
1001.360177497264
1001.360177797199
1001.36017821216
1001.360178751025
1001.360179423725
1001.360180242119
1001.36018121786
1001.360182377484
1001.360183661898
1001.360185376283
1001.360179699079
1001.348164197356
966.5000236184403
217.2364644807488
1.153153333570415
1.065297520914366
1.021358463379008
1.001863789513576
0.9927689637517413
0.9880176236577876
0.9854245161565595
0.9840367881231175
1001.360178716252
1001.360178914856
1001.360179205993
1001.360179610191
1001.360180134322
1001.360180785273
1001.360181570175
1001.36018249425
1001.360183577303
1001.360184736846
1001.36018630087
1001.360177527694
1001.344735087499
772.7858185473922
65.99732973008156
1.104172167398635
1.032617174791878
1.00382534381503
0.9923686842553987
0.9874358924691654
0.9850947177831353
0.9839322644377387
0.9833544752717615
1001.360179945388
1001.360180132816
1001.360180405195
1001.360180783356
1001.360181271481
1001.36018187234
1001.360182584554
1001.360183403423
1001.360184335624
1001.360185266036
1001.360186495613
1001.360173454475
1001.340834637105
551.7480941893574
9.865426722893874
1.068196886606575
1.012695267827656
0.9939395222226162
0.9874039478820479
0.9848640148066519
0.983774248776757
0.9832824340102786
0.983057876704684
1001.360180798726
1001.36018096172
1001.360181191877
1001.3601815072
1001.36018190754
1001.360182388647
1001.360182926607
1001.360183496983
1001.360184076261
1001.360184483847
1001.36018485983
1001.36016540028
1001.336452192219
342.4328329608376
1.144503422968439
1.042622594812592
1.000654382799868
0.9885488027036771
0.984943419863991
0.983701759761308
0.9832238009178034
0.9830288129377245
0.9829480202254921
1001.360180615221
1001.360180714421
1001.360180833958
1001.360180979571
1001.360181144844
1001.360181312807
1001.360181389229
1001.360181309586
1001.3601809814
1001.360180068222
1001.360178203723
1001.360147430123
939.2902606195529
205.7342808272004
1.117362116021669
1.022960521566823
0.9927212620675073
0.9856154041907471
0.9837725799287724
0.9832057759960836
0.9830099068286879
0.9829379517202425
0.982911194469254
1001.360177196265
1001.360177116597
1001.360176928367
1001.360176600151
1001.360176125172
1001.360175468086
1001.360174307427
1001.360172514036
1001.360169848735
1001.360165599873
1001.360157999981
1001.360104775098
853.2956261068804
117.547359074424
1.08757313195381
1.006474765241024
0.9877027629928035
0.9840919960108216
0.9832438642809218
0.9830060859036278
0.9829317818857418
0.982907301556518
0.9828993326144077
1001.360163799782
1001.360163228751
1001.360162203584
1001.360160597667
1001.360158456354
1001.360155739443
1001.360151396896
1001.360145272539
1001.360136844556
1001.360124547344
1001.360102918072
1001.360001581773
756.461212385045
59.86513606934898
1.05348270472542
0.9941229469662735
0.9849379720804723
0.9833724975003139
0.9830219473451131
0.9829306144230614
0.9829047070078828
0.9828972095773759
0.9828952934003092
1001.360121305312
1001.360119465119
1001.360116299393
1001.360111469542
1001.360105311466
1001.360097881334
1001.360085855197
1001.360069446891
1001.360047656991
1001.360017160786
1001.359963014658
1001.359756924012
651.8385063778112
25.94178789645589
1.017573002272637
0.9872965025007143
0.9836816250564886
0.9830700476563691
0.9829362870854125
0.9829038243962256
0.9828956027730604
0.9828937110090301
0.9828935805996941
1001.359999649347
1001.359994780645
1001.359986552777
1001.359974226484
1001.359959271855
1001.35994221769
1001.359912937582
1001.359873793052
1001.359823128878
1001.359754590767
1001.359629429923
1001.359202144143
538.5008485131623
8.451281506456741
0.9950249616187667
0.9848612023135204
0.9832150768562037
0.9829553762494675
0.9829056406441958
0.9828947454796448
0.9828924570966736
0.9828922483001997
0.9828925694701183
1001.359678606602
1001.359667143247
1001.359647978608
1001.35961978991
1001.359587707157
1001.359553795552
1001.359488730234
1001.359403113988
1001.359294761007
1001.359154066981
1001.358883630492
1001.358016914206
411.1406953835216
1.251209694527966
0.991463528360445
0.9839866321880153
0.9830404444920025
0.9829150140652928
0.9828952090949959
0.982891674592159
0.9828912065986022
0.9828914226795243
0.9828918007359764
1001.358896972734
1001.358872607635
1001.358832179027
1001.358773965246
1001.358713266081
1001.358656147961
1001.358523073471
1001.358350373742
1001.358136522474
1001.357875762384
1001.357328949484
1001.355659789147
288.3474119930116
1.069652490004873
0.9905368666265834
0.9836290274790351
0.9829698988857457
0.9829002457811807
0.982891635158489
0.9828905296145033
0.9828905495353483
0.9828908140278397
0.9828911435570129
1001.357154876461
1001.35710839603
1001.35703164423
1001.356924000884
1001.356825119774
1001.356749768478
1001.356499467572
1001.356178648845
1001.355790265764
1001.355366546751
1001.354335346096
1001.351356167457
213.2885552186617
1.054006354865124
0.9893471168779273
0.9834392902860839
0.9829379087067684
0.9828942964907538
0.9828902403545341
0.9828899389693432
0.9828900524684817
0.9828902687330524
0.9828905318386993
1001.353657348534
1001.353579074202
1001.353449974852
1001.353274935262
1001.353142292892
1001.3530825713
1001.352650816057
1001.352102631665
1001.351453620872
1001.350882035645
1001.349077085404
1001.344281024109
189.5627478864541
1.033098865378575
0.9886261314142233
0.9834348837441487
0.9829273148053278
0.9828915176824471
0.9828894178193041
0.982889415724
0.9828895407114746
0.9828897099713509
0.9828899305956512
1001.347517167639
1001.347403286425
1001.347214294958
1001.346968595528
1001.346828095509
1001.346846062845
1001.346157711718
1001.345282073742
1001.344257341125
1001.343672795388
1001.340764371114
964.520447861643
197.4242193676591
1.044437883132709
0.9895486134730442
0.9835822478500057
0.9829312527334794
0.9828897979555702
0.9828886160162285
0.9828887801813668
0.9828889363653777
0.9828890953285621
0.9828893088543194
878.1605293290565
873.275870143155
864.6209026764293
851.3567092524213
832.4803583318577
808.0363173742269
777.2389859266056
739.3905721457351
688.6158065931947
602.8322054351664
479.9930178568226
295.6796119886377
179.012028102475
6.782991047331331
1.011294288513859
0.9854288471160664
0.9829860045515099
0.9828881559184273
0.9828876534638875
0.9828879838458402
0.9828882175926204
0.9828884113565373
0.9828886498635985
116.2565326035246
111.0071074412645
102.0514359494447
89.23098142315629
73.67467277554205
55.95584403225806
36.62637710705361
16.53849530678474
1.250604895297797
1.251256483178021
1.248442467180737
1.219684542888391
10.37411820546517
21.66334917878942
1.208790178951068
0.9929925991864901
0.9833429660573066
0.982886178293401
0.9828865415998824
0.9828870636440493
0.9828874072639723
0.9828876632707749
0.9828879381963425
1.178608303326626
1.177929917199295
1.17652684856785
1.17455667587468
1.170602344476716
1.165224263567134
1.160354560791427
1.154367110830479
1.145334265672259
1.130610894640915
1.117224971005057
1.100901475306479
1.154173588263723
19.09967165646989
2.328796415495364
0.9984451652976001
0.9831277334561939
0.9828820923699269
0.9828854393618639
0.982886110790912
0.9828865576146013
0.982886876790016
0.9828871816622118
1.04649076910474
1.045751852570733
1.044500894209737
1.042792516682422
1.038545545507196
1.032778558134406
1.028630900706956
1.023952611594826
1.018428351296633
1.011617134731506
1.007723722874697
1.020780248584233
1.279887292442935
5.354456803622503
2.08549396751346
0.9919831850258967
0.9827480619143688
0.9828840948649261
0.9828844669741189
0.9828852160199908
0.9828857233645344
0.982886078442847
0.9828863849288487
0.9678259610697915
0.9679260969980991
0.9680050445489435
0.9682534977941332
0.9688656523858814
0.9693155958609617
0.9693225030358001
0.9695742529792741
0.9704289624090378
0.9730679467848831
0.9825898154275863
1.010850373993517
1.045974191624119
1.08485432554871
1.795493061951516
0.9826919269119033
0.9827141809989687
0.9828947414873253
0.9828832506113662
0.9828844523792439
0.9828849422025224
0.9828852912322843
0.9828855703310297
0.9835074697735756
0.9835141378223166
0.9835237682834647
0.9835229601388089
0.9835135908480573
0.9835814665679187
0.9837690551788942
0.9841041519621663
0.9848469621570666
0.9864180458366765
0.9891362093323588
0.9932935637449115
1.000094513395765
1.028460521895528
1.049107854820101
0.9804581722804405
0.9828431704090369
0.9828994531294429
0.9828821355397549
0.9828838256358303
0.9828842195078806
0.9828845173394997
0.9828847402970995
0.9830062235920991
0.983005930333721
0.9830053469956953
0.9830052468445623
0.9830045692025562
0.9829962856121544
0.9829749552082441
0.9829311208713589
0.9828540867278666
0.9828231565688593
0.9831680137507859
0.984371971041078
0.9864255619780377
0.9883841852267357
0.9884895594816595
0.9815400709533738
0.9828862128299656
0.9828945746598002
0.9828818210870667
0.9828832573449501
0.9828835333936696
0.9828837554223319
0.9828839152374718
0.9828678744305706
0.9828675378320629
0.982867263315423
0.9828669620591758
0.9828667250045258
0.9828668265551568
0.982867596788313
0.9828703953971663
0.9828788071208695
0.9828978963398589
0.9829386381188226
0.9830446809377847
0.9832930565749253
0.9836321768782019
0.9837041335959642
0.9825104959209038
0.9828817444115421
0.9828875462083232
0.9828819135659527
0.9828826738535617
0.9828828481649509
0.9828829886235755
0.9828830862599369
0.9828870469515764
0.9828869478605778
0.9828867926455874
0.9828866884067015
0.9828866840966228
0.9828867633690386
0.98288683758468
0.9828867314378343
0.9828862044382345
0.982885231990989
0.9828848343079383
0.9828884030370864
0.9829025185433922
0.9829293844364881
0.9829410948484125
0.9828276000367149
0.9828800200954344
0.9828833525726545
0.982881778612298
0.9828820496355229
0.9828821447972556
0.982882220643196
0.9828822742453686
0.9828848733758963
0.9828847338370346
0.9828845416407627
0.9828843736412101
0.9828842797289566
0.9828842650454641
0.9828842829841111
0.9828842547157708
0.9828841061410379
0.9828838004972807
0.9828833439057026
0.9828828085015062
0.982882457088035
0.982882640329912
0.9828824654646859
0.9828774090610242
0.9828809156873223
0.9828816521936404
0.9828813254906366
0.982881377696075
0.9828814155723373
0.9828814451532415
0.982881466574285
0.9828840968749727
0.982883955619972
0.9828837544664287
0.9828835611559321
0.9828834232995576
0.9828833583083835
0.9828833449122089
0.9828833316878335
0.9828832594432727
0.9828830893480284
0.9828828202195093
0.9828824829246917
0.9828821196241099
0.9828817772052969
0.9828814399162645
0.9828810034322528
0.9828808848033167
0.9828808280431783
0.9828806999502562
0.9828806725620441
0.9828806784449677
0.9828806853270302
0.9828806926302313
0.9828832471473543
0.98288310996771
0.9828829114634821
0.9828827068147729
0.9828825378216199
0.9828824275626122
0.9828823715804084
0.9828823397152857
0.9828822887128175
0.9828821816637902
0.9828820037966274
0.9828817646953814
0.9828814859299618
0.9828811922759935
0.9828808928760016
0.9828805867528766
0.9828803261804306
0.9828801359541902
0.9828800088123248
0.9828799535413293
0.9828799441494865
0.9828799384026331
0.9828799356636017
0.9828823845500213
0.9828822587695507
0.98288207483695
0.9828818748456303
0.9828816925336518
0.9828815520851807
0.9828814595001011
0.9828814002279712
0.9828813449798101
0.9828812623700732
0.9828811319792122
0.9828809497119608
0.9828807235119302
0.9828804673891625
0.9828801956300257
0.9828799161644398
0.9828796542472804
0.9828794476375566
0.9828793122078665
0.9828792480064221
0.9828792343091198
0.9828792274277703
0.9828792244557776
0.9828815104241324
0.9828814017796644
0.9828812420476837
0.9828810605938738
0.9828808824476437
0.9828807293496942
0.9828806125890703
0.9828805284409614
0.9828804595975958
0.9828803825198221
0.9828802768923427
0.9828801317740876
0.9828799461575306
0.9828797265656407
0.9828794856202069
0.982879234120251
0.9828789805527453
0.9828787766546466
0.9828786358220317
0.9828785645666038
0.9828785448991422
0.9828785340080991
0.9828785279360818
0.9828806268809642
0.9828805389081174
0.982880409250294
0.9828802562680591
0.982880096330822
0.9828799471816448
0.9828798217731448
0.9828797230191756
0.9828796425592724
0.9828795644849939
0.9828794716814208
0.9828793513276708
0.9828791973113249
0.9828790102513616
0.9828787973810283
0.9828785696207026
0.9828783360404358
0.9828781368733202
0.9828779893607085
0.9828779085929238
0.9828778808610028
0.9828778681293884
0.9828778643595373
0.9828797373201806
0.9828796708503902
0.9828795728410891
0.9828794524739993
0.9828793189820436
0.9828791854743013
0.9828790642681524
0.9828789619014499
0.982878876305423
0.9828787981287748
0.9828787144093862
0.9828786128139005
0.9828784845130535
0.982878326358036
0.9828781410119217
0.9828779357542399
0.9828777186261761
0.9828775179738386
0.9828773601959296
0.9828772641803594
0.9828772214103495
0.9828771993848368
0.9828771928272986
0.9828788433836187
0.9828787971507023
0.9828787283726715
0.9828786398795949
0.9828785351752939
0.9828784231941965
0.9828783146520187
0.9828782173745338
0.982878133187974
0.9828780576594279
0.9828779818527197
0.982877895227562
0.9828777882262921
0.9828776547645438
0.9828774935873027
0.9828773080898751
0.982877106368788
0.9828769003799667
0.9828767327564887
0.9828766204863367
0.9828765621795874
0.9828765326648489
0.9828765271999217
0.9828779487454713
0.9828779193493953
0.9828778743504167
0.9828778121703684
0.9828777329082167
0.9828776421632218
0.982877548729386
0.9828774605302996
0.9828773816323024
0.9828773110305756
0.9828772430833744
0.9828771692501771
0.9828770801906164
0.9828769680695614
0.9828768271500707
0.982876657293224
0.9828764654396366
0.9828762625182469
0.9828760855653471
0.9828759567536302
0.9828758812213954
0.9828758402834298
0.9828758320850407
0.9828770546793916
0.9828770380693425
0.9828770097108833
0.9828769663587205
0.9828769058916432
0.9828768319885602
0.9828767517622427
0.9828766727469234
0.9828766000203956
0.9828765347553629
0.9828764739388424
0.9828764110532873
0.9828763375337417
0.9828762437300683
0.9828761212732902
0.9828759670849893
0.9828757858847134
0.9828755890906563
0.9828754067594571
0.9828752660229857
0.9828751782232864
0.9828751303524123
0.9828751225066209
0.9828761646538519
0.982876155741072
0.9828761364829416
0.9828761028917963
0.9828760528502287
0.9828759888521311
0.9828759170167305
0.9828758442602714
0.9828757761348665
0.9828757152752471
0.9828756606047876
0.98287560746835
0.9828755477239702
0.9828754706457539
0.9828753660946089
0.9828752283342665
0.9828750595537936
0.9828748706668706
0.9828746864305827
0.9828745387548538
0.982874441400065
0.9828743861540788
0.9828743759591291
0.9828752783063814
0.9828752729624024
0.9828752559841075
0.9828752247994467
0.9828751775054254
0.9828751166867992
0.9828750478965691
0.9828749776605062
0.9828749117045426
0.9828748535949262
0.9828748038936935
0.9828747591540705
0.9828747115505201
0.9828746499139762
0.9828745627756768
0.9828744416255202
0.9828742865837691
0.9828741078488011
0.9828739275171535
0.9828737793725666
0.9828736789971947
0.9828736215584352
0.9828736108626875
0.9828743974473159
0.9828743911485267
0.9828743712000931
0.9828743361344517
0.9828742856183761
0.9828742225933437
0.9828741524477729
0.9828740814659849
0.982874015487176
0.9828739589547345
0.9828739133676165
0.9828738759820934
0.982873839372204
0.9828737921402352
0.9828737212416133
0.982873616229623
0.9828734752931316
0.9828733082142537
0.9828731352876866
0.9828729906298733
0.982872890502003
0.9828728324033217
0.9828728207333896
0.9828735191523444
0.982873509205304
0.9828734829825347
0.9828734412034316
0.9828733845104691
0.9828733166733412
0.9828732431273263
0.9828731699892099
0.9828731034587096
0.982873048257458
0.9828730064317377
0.9828729758131008
0.982872949097195
0.9828729145027943
0.9828728576557163
0.9828727667392388
0.9828726387103948
0.9828724830847015
0.9828723204313724
0.9828721833451327
0.9828720889744424
0.9828720353213375
0.9828720251452252
0.9828726409124414
0.9828726254612768
0.9828725923654712
0.9828725435137611
0.98287248088767
0.9828724086583859
0.982872332344315
0.9828722582483921
0.9828721925048024
0.9828721400607686
0.9828721031409771
0.9828720796200907
0.9828720619444633
0.9828720373249363
0.9828719904099111
0.9828719086860727
0.9828717889282158
0.982871641560405
0.9828714887638422
0.9828713619221999
0.9828712779138596
0.9828712341217152
0.9828712304492963
0.982871757353461
0.9828717378736583
0.9828717006247831
0.982871648764268
0.9828715845265488
0.9828715123014845
0.9828714374773992
0.9828713661774439
0.9828713042961029
0.9828712566441238
0.9828712251391147
0.9828712070278792
0.9828711940271133
0.982871172650458
0.9828711275641031
0.9828710473821189
0.9828709309541299
0.9828707910540163
0.9828706516098846
0.9828705423358509
0.9828704778127973
0.9828704531512069
0.9828704630727056
0.9828708776355977
0.9828708570696812
0.9828708260801551
0.9828707843234322
0.9828707340005892
0.9828706779971911
0.9828706196954714
0.9828705626912005
0.982870510351039
0.9828704649186437
0.9828704265985401
0.9828703928322984
0.9828703581258876
0.9828703150735808
0.9828702569506096
0.9828701809197546
0.9828700906623968
0.9828699966788513
0.9828699122542101
0.9828698509541044
0.9828698134359827
0.9828697888898742
0.9828697735094719
0.9852644196768346
0.9840410200490475
0.9833616639902398
0.9830661259570879
0.9843221031042507
0.9836681057647556
0.9832807714438184
0.9830768245273531
0.9835859279285124
0.9832789342848267
0.983091194718045
0.9829884450471555
0.983169273414918
0.9830466722860343
0.9829727467099553
0.9829328593829895
0.9829899612020712
0.9829474103129954
0.982922631237434
0.9829095222817235
0.9829254298199673
0.9829122115961949
0.9829048624503699
0.9829010045700654
0.9829044180230615
0.9829007456066526
0.9828988110186977
0.9828977430832286
0.9828976274917157
0.9828967835538868
0.9828963702836486
0.9828960791267151
0.9828950740270204
0.9828949899940759
0.9828949613283976
0.9828948830604211
0.9828937250981211
0.9828938050718308
0.9828938548399507
0.9828938458554537
0.9828927587140349
0.9828928442228966
0.9828928850190736
0.9828928974805834
0.9828919524255185
0.9828920004342673
0.9828920083355078
0.9828920231563133
0.9828912671841955
0.9828912699802836
0.9828912272526024
0.9828912201521903
0.9828906526072341
0.9828906049998553
0.9828905126195558
0.9828904733540481
0.9828900957663852
0.9828899862110225
0.9828898393070652
0.9828897484487987
0.9828895171717112
0.9828893562765213
0.9828891854181625
0.9828890705128168
0.9828888885343033
0.9828887027808705
0.982888523264893
0.9828884044995918
0.9828881712970977
0.9828879907351472
0.9828878303074313
0.9828877251974364
0.9828873854327852
0.9828872317172049
0.9828871008562597
0.9828870216857011
0.9828865389863847
0.9828864328880884
0.9828863487351482
0.9828863046462626
0.9828856766392747
0.9828856242462399
0.982885586063531
0.9828855790582722
0.982884806817181
0.9828848157228542
0.9828848277659591
0.9828848549391608
0.9828839615563999
0.9828840247658497
0.982884077567047
0.9828841328527218
0.982883127914805
0.9828832460187986
0.9828833381988173
0.9828834150827104
0.9828823244861093
0.9828824854327626
0.9828826061240588
0.9828826987249882
0.9828815304894357
0.9828817331588887
0.9828818803298555
0.9828819838319462
0.9828807692297312
0.9828809979596858
0.9828811597509302
0.9828812686953737
0.9828800203764091
0.9828802710111312
0.9828804436435593
0.9828805533677707
0.9828793095898714
0.9828795630836592
0.9828797332889042
0.9828798371177526
0.982878608468011
0.9828788600097504
0.9828790241002322
0.9828791182377573
0.9828779357635599
0.9828781696074176
0.9828783172090531
0.9828783959210883
0.982877255094726
0.982877471717495
0.9828776034516139
0.982877666613347
0.9828765802575938
0.9828767724538768
0.9828768844142598
0.9828769298509449
0.9828758785501144
0.982876052254731
0.9828761494847936
0.9828761814123784
0.9828751634433435
0.9828753187025618
0.9828754024619166
0.9828754221968129
0.9828744131666393
0.9828745580799607
0.9828746352027872
0.9828746491929881
0.982873643962723
0.9828737814145065
0.9828738549501446
0.982873865401083
0.9828728506988997
0.982872985676208
0.9828730591402686
0.9828730699741254
0.9828720511575623
0.9828721831144508
0.982872255779612
0.9828722662707605
0.9828712541589456
0.9828713805129297
0.9828714492461452
0.9828714574979981
0.9828704771522878
0.9828705846370857
0.9828706403444032
0.9828706403367573
0.9828697409584839
0.9828698047811762
0.9828698240646724
0.9828697919227114
0.9829321184906756
0.9829056276641079
0.9829019681798145
0.9829018765055179
0.982902145374947
0.9829023586577595
0.9829025134669487
0.9829026226119487
0.9829027017861574
0.9829027626315324
0.982902812461435
0.9829028547158067
0.9829028921341633
0.9829029261046734
0.9829029582573939
0.9829029889020862
0.982903013412643
0.9829030220155943
0.9829029265187095
0.9829446805766623
0.9829089317622801
0.9829020601537535
0.9829013079804625
0.9829013980900295
0.9829015453929533
0.9829016644771502
0.9829017554518991
0.9829018276050506
0.982901887509807
0.9829019391285679
0.9829019847348693
0.982902026117021
0.9829020643125753
0.9829021001832986
0.9829021335217446
0.9829021602608378
0.982902171201939
0.9829020600301119
0.9829208892128258
0.9829038908091431
0.9829008722143182
0.9829005706036027
0.9829006419016841
0.9829007446093979
0.9829008366513635
0.9829009152656909
0.9829009829399986
0.9829010420650209
0.9829010948066913
0.9829011427217883
0.9829011871005152
0.9829012285810319
0.9829012677625072
0.9829013042546995
0.9829013329923768
0.9829013474005887
0.9829012249159735
0.9829071353923495
0.9829009273446881
0.9828998945907604
0.9828998156958593
0.9828998637648511
0.9828999336791344
0.982900006940143
0.9829000768321345
0.9829001409202535
0.9829001991847278
0.9829002526945066
0.9829003025512316
0.9829003494987865
0.9829003939324424
0.9829004361621807
0.9829004753651133
0.9829005073927605
0.9829005225584051
0.9829003970871727
0.9829011790818258
0.9828992563270019
0.9828989928813107
0.9828990030883481
0.9828990464774073
0.9828991042821754
0.9828991689523182
0.982899233647735
0.9828992948910046
0.9828993520575494
0.9828994058797124
0.9828994570557632
0.9828995059892649
0.9828995527985488
0.9828995974816591
0.9828996392582683
0.9828996724281949
0.9828996903194082
0.9828995626678398
0.9828985737310408
0.982898109612208