/*--------------------------------*- C++ -*----------------------------------*\
| =========                 |                                                 |
| \\      /  F ield         | OpenFOAM: The Open Source CFD Toolbox           |
|  \\    /   O peration     | Version:  2206                                  |
|   \\  /    A nd           | Website:  www.openfoam.com                      |
|    \\/     M anipulation  |                                                 |
\*---------------------------------------------------------------------------*/
FoamFile
{
    version     2.0;
    format      ascii;
    arch        "LSB;label=32;scalar=64";
    class       volScalarField;
    location    "0.1";
    object      T;
}
// * * * * * * * * * * * * * * * * * * * * * * * * * * * * * * * * * * * * * //

dimensions      [0 0 0 1 0 0 0];

internalField   nonuniform List<scalar> 
2268
(
272.9999956634405
272.9999951302276
272.9999944799357
272.9999936831943
272.9999927053686
272.9999915017453
272.9999900101797
272.9999881447062
272.9999857749
272.9999827709228
272.9999785644879
272.9999753606938
273.0047095465294
273.0179226711542
273.0392193296047
273.0660833092503
273.0976262074484
273.1305643165772
273.1690585664901
273.2076133315346
273.3713713906109
305.0318958204805
333.3583317072533
272.9999914929921
272.9999908987946
272.9999901403031
272.9999891776716
272.9999879687628
272.9999864575929
272.9999845656068
272.9999821840657
272.999979144594
272.9999752919989
272.9999699537125
272.9999661734718
273.005908574803
273.02200918605
273.0461257000572
273.0733531819184
273.1029721393095
273.1292609127372
273.1698983056403
273.3035497474312
280.8635655732908
312.4984598110295
337.2704201572848
272.9999873217873
272.9999866763902
272.999985824842
272.9999847189829
272.9999833105745
272.999981534327
272.9999792986052
272.9999764781296
272.9999728763204
272.9999683392636
272.9999621203853
272.9999581564579
273.0076503533375
273.0281751734167
273.0569709815947
273.0878679776332
273.1174279042428
273.1439970196911
273.1917576824172
277.3483552015026
297.6958399493649
320.9935259601245
340.213408953664
272.9999830808847
272.9999823863699
272.9999814432228
272.9999801961243
272.9999785916168
272.9999765567438
272.999973989953
272.9999707554598
272.9999666390555
272.9999615078162
272.9999545660633
272.9999508433031
273.0097741261162
273.0355182441679
273.0700093875683
273.1040423513907
273.1337120453011
273.1648648756
273.5897757642067
290.8799982858426
308.5120269246266
327.5189291230136
342.3965932145483
272.9999785235927
272.9999777790838
272.9999767407711
272.9999753475371
272.9999735420389
272.999971246297
272.9999683536129
272.9999647255919
272.9999601438273
272.9999545137196
272.9999470107061
272.9999440355284
273.0123267038796
273.0440759317904
273.084561637588
273.1216283900337
273.1546033213453
273.2810758967663
286.1158245566279
301.1742684425325
316.986209614143
332.6058310139812
344.0086767632811
272.9999732187315
272.9999724239191
272.9999712903149
272.9999697533813
272.9999677547327
272.999965216203
272.9999620331728
272.9999580742232
272.999953131087
272.9999471589032
272.9999393122375
272.9999376854902
273.015329197434
273.0536606225571
273.1004446546391
273.1406291017089
273.1938860256825
280.6145002247429
295.7887352102779
310.1550757614414
324.0470854663918
336.605676808852
345.1773601261704
272.9999669163348
272.9999660833005
272.9999648797602
272.9999632402914
272.9999611088122
272.9999584118449
272.999955052698
272.9999509125245
272.9999458004614
272.9999397171874
272.9999317938688
272.999932169959
273.0187395856443
273.0639382120968
273.1169980339023
273.1635119734073
273.3947343198738
289.6996554968283
304.9287532451573
318.1941786335715
329.9426979120522
339.6856432072685
345.993220175017
272.9999600921016
272.9999592541229
272.9999580379885
272.9999563781248
272.9999542214785
272.9999515002251
272.9999481259658
272.9999439913908
272.99993892328
272.9999329500466
272.9999251787791
272.9999282419391
273.0225511723343
273.0743651247018
273.132554712842
273.2060133701817
278.9498004174139
298.4922727746763
313.4749789237004
325.1935894546124
334.7188523530915
341.9942522742008
346.5492309491565
348.5219288468381
348.5218638422231
348.5218411211098
348.5218152463564
348.5217924529744
348.5217843467552
348.5217922526293
348.5218132508679
348.5218380729328
348.5218609430392
348.5218785701982
348.5218927488993
348.5219043444373
348.5219144992097
348.5219213863348
348.5219243037718
348.5219222883105
348.5219228611705
348.5219545736331
348.5218512164745
348.5218157691374
348.5217952419641
348.521764217141
348.5217353392771
348.5217228844973
348.5217273082704
348.5217456824541
348.5217685696138
348.521790393877
348.521807236004
348.5218211713721
348.521832222776
348.5218416163039
348.5218471501612
348.5218482909597
348.5218446114932
348.5218468149019
348.5218998320082
348.5218290405523
348.5218092230189
348.5217827356843
348.5217414319068
348.5217028775361
348.5216820864273
348.5216797638803
348.5216930705811
348.5217126848762
348.5217324967145
348.5217483634618
348.5217616911353
348.5217722802521
348.5217809537027
348.5217856378646
348.5217857360854
348.5217814096413
348.5217848294776
348.5218377892636
348.5218270431789
348.5218144384582
348.5217750836512
348.5217206993102
348.5216705802667
348.5216398900667
348.5216298238926
348.521637268692
348.5216531914125
348.5216708156338
348.5216855269117
348.521698141119
348.5217081413211
348.5217161036551
348.5217200073863
348.5217192995558
348.5217143434762
348.5217186062465
348.5217714910651
348.521845330739
348.5218294844801
348.5217734014831
348.5217039325373
348.5216412788383
348.5215999952215
348.5215813945771
348.5215825141011
348.5215943600385
348.5216093694419
348.5216225262507
348.5216340964357
348.5216432075065
348.5216501171871
348.5216530872486
348.5216515740361
348.5216460558038
348.5216505894554
348.5217044131446
348.5218407465888
348.5218297769726
348.521765593698
348.5216816158248
348.5216039173783
348.5215506736902
348.5215235902952
348.521518736473
348.5215267827076
348.521539233954
348.521550887232
348.5215613567786
348.5215695133621
348.5215753321189
348.5215772029418
348.5215745767589
348.5215681089015
348.5215728783782
348.5216303950588
348.5215656299883
348.5217356296836
348.5217351082887
348.5216577743309
348.5215712562265
348.5215064922047
348.5214695931276
348.5214574157168
348.521460049897
348.5214686984083
348.5214779245258
348.5214865742304
348.5214932232538
348.5214974912717
348.5214979673519
348.5214940663622
348.5214868738126
348.5214926855978
348.5215422695528
348.5195034647198
348.5213026274018
348.5216213331695
348.5216144468441
348.5215528986352
348.5214935171559
348.521454595875
348.5214372817399
348.5214337608197
348.5214366055035
348.5214411789511
348.5214459517153
348.5214495162746
348.5214512678372
348.5214502278721
348.5214459076806
348.5214399778469
348.5214431010448
348.5214854623169
272.9999612785156
272.9999604640576
272.9999592752779
272.9999576505052
272.9999555405757
272.9999528856388
272.9999496095475
272.9999456228383
272.9999407819927
272.9999351528604
272.9999277990299
272.9999344673912
273.0269022835614
273.0850021581879
273.1450376687535
273.3073527707809
292.772388212628
313.5206579720557
327.005237637132
335.2574214922902
340.9204397886167
344.7729756784462
347.0752008864058
272.9999541465631
272.9999533064693
272.9999520758283
272.9999503826342
272.9999481831726
272.999945425513
272.9999420451109
272.9999379708253
272.9999330734771
272.999927501018
272.9999201627862
272.9999337114921
273.0368275719303
273.108463619696
273.182804377522
275.3862191472866
307.8389446946487
326.3578703423594
336.2402237541619
341.5155773478721
344.6569625929091
346.5731268173948
347.6746728668153
272.9999477604995
272.9999469302623
272.9999457108762
272.9999440238527
272.9999418331021
272.9999390982422
272.999935771067
272.9999318041943
272.9999270897472
272.9999218679662
272.9999148981418
272.9999379787637
273.0487842727937
273.1351889511105
273.2808315174647
297.0624830027377
321.5620948503696
335.3966165830709
341.9235041555756
345.0564036464536
346.7161697247907
347.628818256457
348.1192129734648
272.9999419744689
272.9999411670478
272.999939983431
272.9999383401653
272.999936209311
272.999933562874
272.9999303718564
272.9999266150353
272.9999222118892
272.9999174977737
272.999911139243
272.9999468065171
273.0627235791944
273.1674533091048
273.6491536723586
310.2405636829128
331.7384691612714
341.2540401103949
345.1942930565201
346.9192466985409
347.744162854543
348.1553119173856
348.3600681343059
272.9999369774238
272.999936215435
272.9999351080825
272.999933570667
272.9999315861983
272.9999291434082
272.999926247906
272.9999229187985
272.9999191289374
272.9999153463558
272.9999103475214
272.9999633661766
273.0785783597709
273.2136092528092
276.0446301378179
320.687570515741
338.2637935043563
344.6474913769685
346.9292639112045
347.8244850337123
348.2101956147324
348.3846707898161
348.4644617994761
272.9999335081841
272.9999328455315
272.999931909832
272.999930627887
272.9999290003055
272.9999270443689
272.999924857299
272.9999225384406
272.9999201833907
272.9999185263562
272.9999169978116
272.9999961104994
273.0963917171408
273.2950661845716
299.3047170875117
328.5530038461275
342.3335861394335
346.5263391694422
347.7953324712911
348.2347950008257
348.4044615228148
348.4738716851732
348.5027388600008
272.9999342542338
272.9999338509371
272.9999333649596
272.9999327729732
272.9999321010593
272.9999314182105
272.9999311075217
272.9999314313164
272.9999327655686
272.9999364781073
272.9999440582484
273.0000691681881
273.1168562909275
273.4326013384481
306.5758275717166
334.8679675843846
345.0689305211344
347.5572078714458
348.2087205207184
348.4098702334688
348.4796450383671
348.5054440451291
348.5151566297874
272.9999481540229
272.9999484779155
272.9999492431631
272.9999505775298
272.9999525085658
272.999955179955
272.9999598986212
272.9999671896675
272.9999780254652
272.9999952992372
273.0000261966352
273.0002425822154
273.1413925875394
273.6808282548567
314.9730624994041
340.3528300959034
346.8218884532814
348.0948072869767
348.3954590479486
348.4800931000445
348.5067545350248
348.5157043920453
348.5187494443115
273.0000026174772
273.000004939006
273.0000091068278
273.0000156356907
273.0000243412063
273.000035386818
273.0000530414626
273.0000779400571
273.0001122040472
273.0001621983893
273.0002501322313
273.0006621144736
273.1718588233059
274.2080938486048
325.1652322971054
344.581382980798
347.7950791567201
348.3490655885561
348.4736242210427
348.5063207785825
348.5157933792835
348.5187022841873
348.5195929074803
273.0001753788304
273.0001828601348
273.0001957304008
273.0002153661657
273.0002404018301
273.0002706090339
273.000319501296
273.0003862092614
273.0004747960804
273.0005987783327
273.0008189092155
273.0016567685156
273.2111597456224
275.5640661902787
336.6397861031322
346.9635522621539
348.2388901898028
348.455797433277
348.5035128045552
348.5153043861676
348.5184793329035
348.5193830184199
348.5196318138586
273.0006699709458
273.0006897646348
273.0007232150007
273.00077332749
273.0008341254555
273.0009034590599
273.0010224971522
273.0011816389443
273.0013876136782
273.0016662545634
273.0021750940875
273.0039122130725
273.2634501743352
280.354006900391
344.2680033772632
347.8210278445181
348.4037083535594
348.4959953821751
348.5138994511675
348.5180160061417
348.5190651601976
348.5193572414498
348.5194379827216
273.0019751668885
273.0020217709717
273.002099684493
273.0022142851455
273.0023447169664
273.0024825838958
273.0027471055325
273.0030951762976
273.0035356823313
273.0041076692564
273.0052071180043
273.0087306996477
273.3359307537995
313.2140309389718
345.5042632309805
348.1297637996293
348.4651714612816
348.5098606653164
348.5171202664707
348.5186018108876
348.5189873617855
348.519116713102
348.519170673413
273.0051528750956
273.0052519303058
273.0054162909298
273.0056529562375
273.0058997255972
273.006131936243
273.0066729431396
273.0073750432966
273.0082444410054
273.0093045407963
273.0115275584784
273.0183133078392
273.4491471704094
320.2481493032163
345.8273613811465
348.2560359204244
348.4897866848677
348.5146539144247
348.5179084129318
348.5185060505281
348.5187039018973
348.5188069626933
348.5188733328552
273.0122352322159
273.0124241933129
273.0127362191688
273.0131738307775
273.0135758201038
273.0138821514715
273.0148997178311
273.0162039621374
273.0177828750005
273.0195054335597
273.0236975816408
273.035808638245
273.6581052643485
325.0022447639335
346.2430802398027
348.3229191645868
348.5007234017465
348.5163015978739
348.5179132854711
348.5182091442579
348.5183643521595
348.518479361434
348.5185669366047
273.0264538231085
273.0267720287517
273.0272968509041
273.0280084309892
273.0285476549367
273.0287904376899
273.030545624288
273.0327741132341
273.0354124694243
273.0377360601631
273.0450734170451
273.0645694370392
274.0261557084601
331.5796356677854
346.4953099739163
348.3241077524102
348.5039901410906
348.5167819006979
348.5176867579363
348.5178744985922
348.5180261894971
348.5181587298149
348.5182623460623
273.0514145683142
273.0518774995533
273.0526457556654
273.0536445294958
273.0542156649456
273.0541426288386
273.0569407786272
273.060500226251
273.0646657058376
273.0670418296035
273.0788641230763
273.1057779414257
274.4401574009623
327.9801391210207
346.1718290814835
348.2713311677833
348.5019935166209
348.5168212889926
348.5174184966445
348.5175636437293
348.517715851769
348.5178594331736
348.5179701638523
273.0876555282669
273.0882459707674
273.0892520596209
273.0905200758474
273.0911768478516
273.0909182529066
273.0953318687135
273.1011628084378
273.1081984380593
273.1101869525543
273.1268432719586
273.157833033099
274.6188398434098
286.9107885953512
338.7272623860498
347.6177753306144
348.4818210819788
348.5167532352629
348.5171694141818
348.5172951162208
348.517443032996
348.5175876379663
348.5176970981975
273.1482623275306
273.1500360602065
273.1533331545143
273.1582385255657
273.1647368331048
273.173168542494
273.1918809294706
273.2208198809346
273.270884116764
273.3842664910618
274.3070638108429
280.8485839369283
274.9330792577323
280.2620689224582
324.3140052202257
344.9685005333289
348.3543861723653
348.5167261941656
348.5169496034856
348.5170666646363
348.5172066259388
348.517345680421
348.5174508746074
290.6385707003521
290.8059555522269
291.1527296035465
291.6410638561491
292.6261790827003
293.9767052583302
295.210321021156
296.7413256356095
299.081334162549
302.9756417725645
306.605059594935
311.6944513854044
297.0425620027839
280.7100064288691
305.8201398242138
343.0832002855058
348.4297297202003
348.5174664604547
348.5167465772729
348.5168674170519
348.5169994095541
348.5171305675729
348.5172319491362
327.3309012833336
327.562184079994
327.9544722488965
328.4917188470601
329.8349902824735
331.6767034682689
333.01397784838
334.5352916590211
336.3499585559242
338.6166068551902
340.0260950318442
338.5166208589951
316.687791773204
286.0558409558288
304.4730750920027
345.3172695908951
348.5636564965658
348.5161670061319
348.5165637803116
348.5166877025762
348.5168135509568
348.5169389714018
348.5170418366845
353.9363097193531
353.8996847900573
353.8708040588732
353.7799733109009
353.5564055638372
353.3922294638165
353.3896208442728
353.2977431877168
352.9876384823226
352.0297438485329
349.2127490458134
341.8536128103493
329.5135708081166
318.17862237028
319.9249278045386
348.5819110809952
348.5752658968836
348.5119653404537
348.5165584112657
348.516515206804
348.5166428443023
348.5167664235438
348.5168745014491
348.2928449614425
348.2904760435841
348.2870538840286
348.2873220476085
348.2906139904605
348.2665413105809
348.2000773218029
348.0814434109587
347.8214215191672
347.2706921824835
346.3099397762786
344.8602080380165
342.5145488304177
339.5129319745222
339.3541857566408
349.3763506614251
348.5293976978714
348.5100232456749
348.5166040324359
348.516346537307
348.5164847553414
348.5166117058632
348.5167287772888
348.4702762359565
348.4703749416386
348.4705758937966
348.4706031875397
348.4708321764929
348.4737526700494
348.4812907509383
348.4967953395477
348.5240524742271
348.5349235815414
348.4125095539493
347.9865661873719
347.2619874251275
346.5737546860703
346.5373601548986
348.9915842720713
348.5141163056369
348.5115559133039
348.5164170337457
348.5161925127743
348.5163384222818
348.5164706072854
348.5165948321556
348.5191544297267
348.519270972833
348.5193677748349
348.5194749202176
348.5195601406754
348.5195255453032
348.5192530707484
348.5182590551759
348.5152690653981
348.5084797710618
348.4939953135433
348.4563743117715
348.3684295709439
348.2485801993237
348.2235038227842
348.6469688317131
348.5156048855829
348.5138357450449
348.5160926746681
348.5160562165324
348.5162041037211
348.5163421031038
348.5164717941096
348.5121682054903
348.5122026238675
348.5122613580877
348.5123053154158
348.5123174106747
348.5123034358106
348.5122947602229
348.5123534397065
348.5125639068772
348.5129329068183
348.5131014936102
348.5118892932895
348.5070067706985
348.4976989802546
348.4938320760261
348.5343625292572
348.516018682665
348.515062412629
348.5158305467436
348.5159300356646
348.5160780905749
348.5162183296003
348.5163481413322
348.5127336429087
348.5127840305163
348.5128589612435
348.5129302762597
348.5129806527277
348.513008519805
348.5130307472281
348.5130757127366
348.5131699017269
348.5133267962265
348.5135486726644
348.513823835497
348.5140786803584
348.5141958767906
348.5144735808662
348.5164841727307
348.5154391851076
348.5153656380018
348.5156597538889
348.5158105738416
348.5159576385049
348.5160972502583
348.5162251812033
348.512784994574
348.5128371672658
348.5129173216572
348.5130006878798
348.5130707450152
348.5131216467572
348.5131613854834
348.513208749734
348.5132853249033
348.5134060690522
348.5135750754984
348.5137890238962
348.5140412928675
348.5143164895669
348.5146096627327
348.5149407785607
348.5151505052456
348.5153321356948
348.5155332676567
348.5156929099113
348.5158348112984
348.5159686512416
348.5160905508593
348.5128431382366
348.5128946604739
348.5129750823277
348.5130642161091
348.5131475499448
348.5132172108993
348.5132751985496
348.5133327259474
348.5134057872717
348.5135086564013
348.5136490652328
348.513827485304
348.5140395213184
348.5142759157258
348.5145275550113
348.514785158827
348.5150233849784
348.5152332277391
348.5154170731357
348.5155716208897
348.5157057968304
348.5158328108063
348.5159491453591
348.5128869149572
348.5129348906684
348.5130107212789
348.5130989697279
348.5131879197099
348.5132692545261
348.5133411896627
348.513409313539
348.5134845784389
348.5135790285954
348.5137014187151
348.5138550556144
348.5140382152359
348.5142450159845
348.5144669618132
348.5146958044754
348.5149180058895
348.5151188885935
348.5152924438443
348.5154382626221
348.5155633050535
348.5156813870865
348.5157902180308
348.5129165658543
348.5129587391758
348.5130261201348
348.5131078821112
348.5131953386398
348.5132809828521
348.5133610750825
348.5134372668741
348.5135161269094
348.5136066225611
348.5137168040945
348.5138513661751
348.5140108643357
348.5141920590334
348.5143883539514
348.5145928394532
348.5147992187369
348.5149873903043
348.5151522203216
348.5152908639751
348.5154092322888
348.5155209501032
348.515624515195
348.5129323387825
348.512967299461
348.513023856094
348.5130951705344
348.5131755802774
348.5132589476784
348.5133408766508
348.5134205780355
348.513501321092
348.513589134798
348.5136905265087
348.5138103429654
348.5139506027764
348.5141102785206
348.5142853852
348.5144701185435
348.5146589367893
348.514835942997
348.5149944089372
348.5151284053746
348.5152422805531
348.5153480905788
348.5154454423673
348.5129341532951
348.5129615012665
348.5130064992219
348.5130656391622
348.5131357544746
348.5132123149728
348.5132911006448
348.5133699692099
348.5134498590267
348.5135343141272
348.5136281348331
348.5137357452962
348.5138600092172
348.5140013760894
348.5141578769272
348.5143256088401
348.5145000489765
348.5146697302034
348.5148245454088
348.5149572094258
348.5150702025578
348.5151737349628
348.515267458075
348.5129225731241
348.5129426909713
348.512976895248
348.5130239952156
348.5130828326935
348.5131503342124
348.5132228129904
348.5132976217694
348.5133742481291
348.5134543912583
348.5135412948563
348.5136386312955
348.5137494983746
348.5138755023202
348.5140162939633
348.5141697024691
348.5143316871226
348.5144967393632
348.5146488987486
348.5147816237401
348.5148948443114
348.5149962750917
348.5150856390006
348.5128973911616
348.512911446661
348.5129367571631
348.5129737506091
348.5130224621946
348.5130809867432
348.5131462966194
348.51321567834
348.5132877812759
348.513363028744
348.513443426284
348.5135318915875
348.5136314624976
348.5137444522605
348.513872255275
348.514014158439
348.5141668106174
348.5143252875011
348.5144756053539
348.5146093724825
348.5147242099668
348.5148256276707
348.5149125397849
348.5128591584921
348.5128685707788
348.5128875251725
348.5129170878797
348.5129580738993
348.5130092511623
348.5130681754746
348.5131322527504
348.5131997475073
348.5132702768254
348.5133448806474
348.5134257471665
348.5135156638287
348.5136176551839
348.5137341593195
348.5138656373473
348.5140096823089
348.5141613746065
348.5143092703311
348.5144431946476
348.514558575501
348.514658991677
348.5147428419834
348.5128075321499
348.5128141030124
348.5128294075465
348.512854814785
348.5128911352345
348.5129375539354
348.5129919730053
348.5130520070024
348.5131157372304
348.5131822453706
348.5132518729249
348.5133261493177
348.5134077346908
348.5135000881774
348.5136063523562
348.5137280195552
348.5138636892331
348.5140087513143
348.5141537062746
348.5142866750318
348.5144022403168
348.5145023495413
348.5145845336355
348.5127434021843
348.5127486031456
348.512762725488
348.5127866693575
348.5128211689349
348.5128653772834
348.5129173948607
348.5129749680231
348.5130361099128
348.5130995660139
348.5131650945871
348.5132338021464
348.5133082577516
348.5133921191034
348.5134890546429
348.5136016020068
348.5137291679766
348.5138674934169
348.5140080817903
348.5141383902713
348.5142523680965
348.5143508217506
348.5144310886207
348.5126667614406
348.5126722112701
348.5126870724604
348.5127118813425
348.5127468170669
348.5127909075084
348.5128423090865
348.5128988518996
348.5129585079889
348.5130197105569
348.5130818861767
348.5131458989811
348.5132141953371
348.5132905443851
348.5133792125151
348.5134834680783
348.5136034535132
348.5137351296368
348.5138706852663
348.5139974688869
348.5141092023825
348.5142059106159
348.5142848091197
348.5125791580076
348.5125858314333
348.5126026689938
348.5126294552923
348.5126660249613
348.5127111122787
348.5127628565149
348.5128191495265
348.5128778346973
348.5129372462345
348.5129966182371
348.5130566179283
348.5131196635992
348.5131896818293
348.5132714385877
348.5133687203006
348.5134821414659
348.5136078060086
348.5137378386908
348.51386015066
348.5139681563392
348.5140617365937
348.5141387561005
348.5124818701047
348.5124904476597
348.5125095445839
348.5125385490175
348.5125768210323
348.5126229528232
348.5126750564138
348.5127309570566
348.5127885212207
348.5128460027118
348.5129025736885
348.5129588925288
348.5130174755949
348.5130826214194
348.513159461999
348.5132520533176
348.5133610980463
348.5134824045874
348.5136075630357
348.5137249301113
348.5138280207617
348.5139169611316
348.5139906784631
348.5123770586293
348.5123870382736
348.5124075045393
348.5124374037262
348.5124760068582
348.5125218276912
348.5125730251085
348.5126274871635
348.5126831638233
348.5127383559956
348.5127923453664
348.5128460161597
348.5129021487206
348.5129652973442
348.5130405995427
348.5131317254442
348.5132386564425
348.5133563842843
348.5134759050852
348.5135861842091
348.5136815533875
348.513762961086
348.5138312082768
348.5122616743592
348.5122720337038
348.51229024329
348.5123164950044
348.5123500741154
348.512390028832
348.512435228028
348.512484454089
348.5125365499214
348.512590723396
348.5126468620808
348.5127057795971
348.5127692677837
348.5128397274855
348.5129192484561
348.5130084762629
348.5131056872064
348.5132066905247
348.5133062698575
348.5133991235211
348.5134845230166
348.5135655266333
348.5136424441289
347.6820233286451
348.1147734339194
348.3563047180214
348.4616801027888
348.0179967356216
348.2491743595075
348.3862917524438
348.4585813814874
348.2785558832417
348.3870867747815
348.4534913140966
348.4898699254339
348.4256225766445
348.4690146737742
348.4951941488603
348.5093240274376
348.4885859055507
348.5036848617255
348.5124852053168
348.5171406984823
348.5108436645813
348.5155739020906
348.5182158044893
348.5196094247922
348.5176726530445
348.5190333535107
348.5197695678982
348.5201885799669
348.5194754265679
348.5198415001141
348.5200470915624
348.5202005576049
348.5197951849678
348.519896033626
348.5199703287318
348.5200546311223
348.5197054713111
348.5197501009822
348.5197994351954
348.5198631799958
348.5194950137773
348.5195384668402
348.5195925778205
348.5196512838899
348.5192400206514
348.5192970728189
348.5193638013497
348.519423395022
348.5189519854776
348.5190253146877
348.5191107328597
348.5191794136936
348.5186468026915
348.5187385327806
348.5188424096627
348.5189237265782
348.5183278220507
348.5184425678908
348.5185669586407
348.51866795506
348.5180228763082
348.5181573929279
348.5182917884349
348.5184028287867
348.5177425127371
348.5178877356448
348.5180268290005
348.5181407996488
348.5175018368972
348.5176470603997
348.5177808416282
348.5178913372584
348.5172957957225
348.5174327537749
348.5175569498455
348.5176591692274
348.5171235089776
348.5172436987503
348.5173512779785
348.5174412504522
348.5169702699603
348.5170700308788
348.5171600452128
348.5172361214418
348.5168328264332
348.5169079406403
348.5169776666913
348.5170398904087
348.5166980639614
348.5167498254152
348.5168016632578
348.5168513389622
348.5165678009606
348.5165953730564
348.5166292729128
348.5166681373342
348.5164324520207
348.5164400354061
348.5164597329797
348.5164896058791
348.5162968663482
348.5162851606264
348.5162915584603
348.5163141338983
348.5161510165821
348.5161260403531
348.5161236736142
348.5161410326871
348.5160009988895
348.5159647152963
348.5159552960654
348.5159693191709
348.5158370330657
348.5157966520449
348.5157852487011
348.5157985642768
348.5156687779036
348.5156264111366
348.5156146673842
348.515628891884
348.5154893408003
348.5154509247758
348.5154428221948
348.5154602538655
348.5153114820097
348.515277153167
348.5152727423452
348.515293678192
348.5151302293877
348.5151028096003
348.5151037182204
348.5151291664803
348.5149571306279
348.5149347517344
348.5149394112611
348.5149680987918
348.514787379298
348.5147702370927
348.5147784018136
348.5148100692726
348.5146286749513
348.514614091267
348.5146235238439
348.5146560796438
348.5144752433992
348.5144623755217
348.5144721690441
348.5145050150199
348.5143288930821
348.5143161422957
348.5143252155424
348.5143571357472
348.5141833098701
348.5141710317523
348.514179801112
348.5142112202137
348.5140353596171
348.5140246262359
348.5140343558778
348.5140661078056
348.5138788528415
348.5138745216491
348.5138885870677
348.513922963321
348.5137064210189
348.5137174382467
348.5137442859911
348.5137898970437
348.5099105788576
348.5198043503793
348.5213458311459
348.5214889815484
348.5214539929681
348.5214209249459
348.5213994453047
348.5213888603149
348.5213853739224
348.5213855705352
348.5213871697596
348.5213891162846
348.5213905397254
348.521391017799
348.5213900251613
348.5213874930288
348.5213850938577
348.5213863193006
348.5214224411646
348.5055121989365
348.5183854372324
348.5209674316349
348.5213063436218
348.5213127453703
348.5212887784423
348.5212714057549
348.5212618402271
348.5212572270678
348.5212553102097
348.5212546177514
348.5212542599266
348.521253534858
348.5212520276687
348.5212494034187
348.5212457191187
348.5212424090629
348.5212427342782
348.5212843763911
348.5137975342425
348.5198690636731
348.5210111088485
348.5211617681756
348.5211605637529
348.5211434087977
348.521129553216
348.5211202325369
348.5211143668348
348.5211107895267
348.5211083975291
348.5211063630621
348.5211040238547
348.5211010087526
348.5210970057113
348.5210920865014
348.5210880042704
348.5210870663136
348.5211327026781
348.5184086975688
348.5205845252387
348.5209639064077
348.521007631588
348.5210030755972
348.5209915513814
348.5209805773682
348.520971871578
348.5209656166994
348.5209612318434
348.5209578409838
348.5209546654368
348.5209511532825
348.5209469563059
348.5209418174473
348.5209359266444
348.5209306864978
348.5209294902401
348.5209761878237
348.5200853030203
348.5207454678711
348.5208414506058
348.5208470474258
348.5208420485009
348.5208339648562
348.5208254656652
348.5208182315152
348.5208127652555
348.520808663173
348.5208051466014
348.5208015588235
348.5207974459361
348.5207925357439
348.5207866619286
348.5207799826899
348.5207744376831
348.5207723415864
348.520819840041
348.5204907651196
348.5206637153092
348.5206765556322
348.520674427886
348.5206717174152
348.5206669599303
348.5206615053207
348.5206567585944
348.5206531590233
348.5206502885289
348.5206474663752
348.5206441315771
348.5206399535697
348.5206347590731
348.5206284401777
348.5206213440577
348.5206150857504
348.5206132680578
348.5206597087599
348.5204570113341
348.5204929250436
348.5204897537612
348.5204906923789
348.5204922152589
348.5204917091777
348.5204903210486
348.520489179353
348.5204885156351
348.5204878614037
348.5204866167804
348.5204843174238
348.5204807579482
348.5204758383454
348.5204695596426
348.5204623155217
348.5204563229062
348.520453980736
348.5204997083487
348.5202891797211
348.5202906886058
348.5202904353466
348.5202972350148
348.5203036506601
348.5203079135222
348.5203111661175
348.5203142619475
348.5203171954482
348.520319441306
348.5203204129027
348.5203197483725
348.5203173583639
348.5203132051997
348.5203073326532
348.5203003707309
348.5202942015196
348.5202925033258
348.5203359227654
348.5200795332955
348.5200755657781
348.5200832853444