/*--------------------------------*- C++ -*----------------------------------*\
| =========                 |                                                 |
| \\      /  F ield         | OpenFOAM: The Open Source CFD Toolbox           |
|  \\    /   O peration     | Version:  2206                                  |
|   \\  /    A nd           | Website:  www.openfoam.com                      |
|    \\/     M anipulation  |                                                 |
\*---------------------------------------------------------------------------*/
FoamFile
{
    version     2.0;
    format      ascii;
    arch        "LSB;label=32;scalar=64";
    class       volScalarField;
    location    "0.1";
    object      T.water;
}
// * * * * * * * * * * * * * * * * * * * * * * * * * * * * * * * * * * * * * //

dimensions      [0 0 0 1 0 0 0];

internalField   nonuniform List<scalar> 
2268
(
272.9999956634427
272.9999951302297
272.9999944799376
272.9999936831966
272.9999927053711
272.9999915017482
272.9999900101827
272.9999881447089
272.9999857749028
272.9999827709257
272.9999785644904
272.999975360699
273.0047095537436
273.0179226901532
273.0392193557307
273.066083334905
273.0976262268402
273.1305643314392
273.1690585665756
273.2076133315337
273.3713713905988
305.0318958007801
333.3583317323205
272.999991492996
272.9999908987989
272.9999901403077
272.9999891776765
272.9999879687677
272.9999864575975
272.9999845656124
272.9999821840717
272.9999791445997
272.9999752920045
272.9999699537173
272.9999661734808
273.0059085832634
273.0220092067536
273.0461257264913
273.0733532080264
273.1029721617933
273.1292609366229
273.1698983056393
273.3035497464926
280.8635655732854
312.4984598248049
337.2704201730919
272.9999873217926
272.9999866763961
272.9999858248484
272.9999847189893
272.9999833105812
272.9999815343344
272.9999792986132
272.9999764781377
272.9999728763286
272.9999683392722
272.9999621203935
272.9999581564713
273.0076503635454
273.0281751965086
273.0569710083103
273.0878680028858
273.1174279278804
273.1439970381153
273.1917576823949
277.3483552015005
297.6958398842684
320.9935259845037
340.2134089631087
272.9999830808926
272.9999823863785
272.9999814432319
272.9999801961332
272.999978591626
272.9999765567529
272.999973989963
272.9999707554707
272.9999666390668
272.9999615078273
272.9999545660745
272.9999508433202
273.0097741382136
273.035518269184
273.0700094138949
273.1040423761782
273.1337120689136
273.1648648755984
273.589775764204
290.8799981987185
308.512026917515
327.5189291458976
342.3965932201432
272.9999785236028
272.999977779094
272.9999767407822
272.9999753475485
272.999973542051
272.9999712463095
272.9999683536255
272.9999647256055
272.9999601438417
272.9999545137341
272.9999470107207
272.9999440355501
273.0123267179707
273.0440759580802
273.084561662921
273.1216284145364
273.154603314794
273.2810758952536
286.1158244977358
301.1742684161507
316.986209624716
332.6058310319232
344.0086767665853
272.9999732187439
272.9999724239323
272.9999712903283
272.9999697533956
272.999967754747
272.9999652162181
272.9999620331884
272.9999580742397
272.9999531311041
272.9999471589209
272.9999393122559
272.9999376855168
273.0153292135929
273.0536606492588
273.1004446784858
273.1406291243387
273.193886025672
280.6145001262126
295.7887351725732
310.1550757576114
324.0470854827554
336.6056768215544
345.177360128112
272.9999669163504
272.9999660833162
272.9999648797761
272.999963240308
272.9999611088293
272.999958411863
272.9999550527163
272.9999509125436
272.9999458004818
272.9999397172086
272.99993179389
272.9999321699909
273.0187396037928
273.0639382382348
273.1169980551766
273.1635119682434
273.3947343163787
289.6996554529621
304.9287532314025
318.1941786417736
329.942697927779
339.6856432155668
345.9932201761917
272.9999600921187
272.9999592541403
272.9999580380065
272.9999563781437
272.9999542214974
272.9999515002448
272.9999481259858
272.999943991412
272.9999389233028
272.9999329500701
272.999925178803
272.9999282419764
273.0225511922179
273.0743651496715
273.1325547277638
273.2060133701765
278.9498001999183
298.4922727436641
313.4749789248886
325.1935894672715
334.718852365329
341.9942522793625
346.5492309499037
348.5219291723322
348.5218641680466
348.5218414476068
348.5218155736617
348.5217927811863
348.5217846759106
348.5217925827083
348.5218135818118
348.5218384046615
348.5218612754695
348.5218789032476
348.5218930824925
348.5219046785017
348.5219148336741
348.5219217211287
348.5219246388278
348.5219226235606
348.5219231965502
348.5219549090818
348.5218515418979
348.5218160949167
348.521795568439
348.5217645444404
348.5217356674936
348.5217232136627
348.5217276383611
348.5217460134089
348.5217689013519
348.5217907263154
348.5218075690611
348.5218215049724
348.5218325568466
348.5218419507742
348.5218474849611
348.5218486260205
348.521844946748
348.5218471502869
348.5219001674666
348.5218293658484
348.5218095487168
348.5217830621232
348.5217417592017
348.5217032057672
348.5216824156162
348.5216800939995
348.5216934015646
348.5217130166425
348.5217328291799
348.5217486965461
348.5217620247626
348.52177261435
348.5217812881995
348.5217859726897
348.521786071171
348.5217817449206
348.5217851648868
348.5218381247441
348.5218273682709
348.5218147640256
348.5217754100281
348.5217210265919
348.5216709085133
348.5216402192881
348.5216301540501
348.5216375997164
348.5216535232214
348.5216711481411
348.5216858600365
348.521698474786
348.5217084754578
348.5217164381895
348.5217203422487
348.5217196346774
348.5217146787907
348.5217189416902
348.5217718265813
348.5218456555637
348.5218298098816
348.5217737277796
348.5217042598021
348.5216416071079
348.5216003244859
348.5215817247885
348.521582845184
348.5215946919051
348.5216097020071
348.5216228594324
348.5216344301591
348.5216435416974
348.5216504517747
348.5216534221627
348.5216519092082
348.5216463911673
348.5216509249481
348.5217047487087
348.5218410711961
348.5218301022514
348.5217659199034
348.5216819430651
348.5216042456691
348.5215510030068
348.5215239205708
348.5215190676249
348.5215271146454
348.5215395665893
348.5215512204826
348.5215616905694
348.5215698476185
348.5215756667698
348.5215775379169
348.5215749119906
348.521568444323
348.5215732139284
348.5216307306823
348.5215659558366
348.5217359551464
348.521735434482
348.521658101559
348.5215715845508
348.5215068215895
348.5214699234884
348.5214577469592
348.5214603819261
348.5214690311348
348.5214782578647
348.5214869081066
348.5214935575922
348.5214978260018
348.5214983024036
348.5214944016684
348.5214872093073
348.5214930212197
348.5215426052433
348.5195038031918
348.5213029550591
348.5216216596106
348.5216147741531
348.5215532270406
348.5214938466504
348.5214549263616
348.5214376131141
348.5214340929817
348.5214369383594
348.5214415124179
348.5214462857143
348.521449850732
348.521451602682
348.5214505630347
348.5214462430949
348.5214403134486
348.5214434367709
348.5214857981094
272.9999612785332
272.9999604640754
272.9999592752966
272.999957650524
272.999955540596
272.9999528856582
272.9999496095689
272.9999456228603
272.9999407820158
272.9999351528851
272.9999277990548
272.9999344674313
273.0269023048297
273.0850021824464
273.1450376725069
273.3073527706497
292.7723881693343
313.520657973099
327.0052376472441
335.2574215011752
340.9204397939817
344.772975680462
347.0752008868261
272.9999541465844
272.9999533064913
272.99995207585
272.9999503826565
272.9999481831954
272.9999454255364
272.9999420451352
272.9999379708506
272.9999330735041
272.9999275010459
272.9999201628145
272.9999337115404
273.0368275956409
273.1084636415037
273.1828043775206
275.3862191472815
307.8389446859638
326.3578703519519
336.2402237608476
341.5155773516288
344.6569625947
346.5731268180448
347.6746728669851
272.9999477605235
272.9999469302865
272.9999457109007
272.9999440238774
272.9999418331275
272.999939098268
272.9999357710943
272.9999318042227
272.9999270897764
272.9999218679974
272.9999148981727
272.9999379788184
273.0487842980782
273.1351889660338
273.2808315174428
297.0624829781519
321.5620948576459
335.3966165895321
341.9235041584113
345.0564036476721
346.7161697252821
347.6288182566301
348.119212973518
272.9999419744953
272.9999411670739
272.9999399834573
272.9999383401918
272.9999362093384
272.9999335629029
272.9999303718851
272.9999266150654
272.9999222119197
272.9999174978047
272.9999111392742
272.9999468065736
273.0627236052698
273.1674532946004
273.6491536711511
310.2405636792269
331.7384691681767
341.2540401131608
345.194293057456
346.9192466988741
347.7441628546633
348.1553119174294
348.3600681343224
272.9999369774511
272.9999362154628
272.9999351081103
272.9999335706952
272.9999315862269
272.9999291434372
272.9999262479352
272.9999229188277
272.9999191289666
272.9999153463846
272.9999103475469
272.9999633662226
273.0785783861458
273.2136092528083
276.0446301378085
320.6875705211714
338.2637935078263
344.6474913779315
346.9292639114755
347.8244850337983
348.2101956147625
348.3846707898288
348.4644617994825
272.9999335082094
272.9999328455571
272.999931909858
272.9999306279125
272.9999290003309
272.9999270443934
272.9999248573222
272.9999225384621
272.9999201834094
272.9999185263702
272.9999169978145
272.9999961105034
273.0963917435769
273.2950661845679
299.3047170785382
328.5530038510306
342.3335861411089
346.5263391697639
347.7953324713686
348.2347950008498
348.4044615228243
348.473871685178
348.5027388600042
272.9999342542484
272.9999338509512
272.9999333649727
272.9999327729848
272.9999321010682
272.9999314182163
272.9999311075225
272.999931431309
272.9999327655496
272.9999364780703
272.9999440581813
273.0000691680659
273.1168563171611
273.4326013384343
306.5758275660449
334.867967589467
345.0689305218938
347.5572078715509
348.2087205207421
348.409870233477
348.4796450383712
348.5054440451319
348.5151569946008
272.999948153996
272.9999484778863
272.9999492431308
272.9999505774911
272.9999525085183
272.9999551798972
272.9999598985474
272.9999671895699
272.9999780253353
272.9999952990588
273.0000261963737
273.000242581754
273.1413926133084
273.6808282547984
314.9730625002996
340.3528300994503
346.8218884535492
348.0948072870099
348.3954590479573
348.4800931000484
348.5067545350277
348.5157047506814
348.5187497822006
273.0000026173203
273.0000049388425
273.0000091066531
273.0000156354983
273.0000243409916
273.000035386575
273.0000530411755
273.0000779397084
273.0001122036147
273.00016219784
273.0002501314779
273.0006621131756
273.1718588485866
274.2080938483153
325.165232307736
344.5813829822188
347.7950791567923
348.3490655885679
348.4736242210477
348.5063207785853
348.5157937355916
348.5187026221122
348.5195932398087
273.0001753783
273.000182859587
273.0001957298236
273.0002153655448
273.0002404011537
273.0002706082934
273.0003195004481
273.0003862082663
273.0004747948908
273.000598776879
273.0008189072917
273.0016567652862
273.2111597706942
275.5640661884245
336.6397861140779
346.9635522623742
348.2388901898208
348.4557974332824
348.5035128045582
348.5153047439782
348.5184796721678
348.5193833524355
348.5196321467286
273.0006699694306
273.0006897630787
273.0007232133755
273.0007733257624
273.000834123608
273.0009034570797
273.0010224949308
273.0011816363963
273.0013876107085
273.0016662510455
273.0021750895427
273.0039122056269
273.2634501995942
280.3540068791533
344.2680033775497
347.8210278445521
348.4037083535655
348.4959953821781
348.5138998141925
348.5180163480021
348.5190654965307
348.5193575765134
348.5194383177745
273.0019751629679
273.0020217669612
273.0020996803327
273.0022142807677
273.002344712351
273.0024825790429
273.0027471001717
273.0030951702564
273.0035356754262
273.0041076613081
273.0052071079101
273.0087306834824
273.3359307801099
313.2140309384949
345.5042632309797
348.1297637996374
348.4651714612853
348.5098610382529
348.5171206123584
348.518602150169
348.5189876995253
348.5191170506116
348.5191710110718
273.0051528657274
273.0052519207546
273.0054162810785
273.0056529459594
273.0058997148975
273.0061319251834
273.0066729310688
273.0073750298783
273.0082444259104
273.0093045239307
273.0115275373022
273.0183132747959
273.4491471838726
320.2481493034741
345.8273614679413
348.256035920429
348.4897866848706
348.5146542674722
348.5179087560865
348.5185063914801
348.51870424234
348.5188073030393
348.5188736732248
273.0122352115444
273.012424172304
273.0127361976089
273.0131738084534
273.0135757971235
273.013882128071
273.0148996925258
273.016203934292
273.0177828440572
273.0195054001607
273.0236975400248
273.0358085762289
273.6581049964151
325.0022447643712
346.2430802398172
348.322919164591
348.5007237760248
348.5163019473194
348.5179136305045
348.5182094882399
348.5183646957223
348.518479704746
348.5185672797264
273.0264537822439
273.0267719873478
273.0272968086134
273.0280083875095
273.028547610558
273.0287903929437
273.0305455761636
273.0327740605329
273.0354124111443
273.0377359995626
273.0450733422445
273.0645693375133
274.0261557084535
331.5796356679472
346.495309973968
348.3241077524162
348.5039905234222
348.5167822520884
348.5176871064005
348.5178748460866
348.5180265363431
348.5181590761487
348.5182626919474
273.0514145021624
273.0518774326958
273.0526456875957
273.0536444597956
273.0542155936777
273.0541425563295
273.0569407000818
273.0605001388781
273.0646656067883
273.0670417279886
273.078864002391
273.1057778295093
274.440157400956
327.9801391524539
346.1718290819077
348.2713311677954
348.5019935166245
348.516821644207
348.5174188490707
348.5175639949108
348.5177162019529
348.5178597825324
348.5179705124988
273.0876554538855
273.0882458952798
273.0892519819784
273.0905199948625
273.0911767608878
273.0909181568389
273.0953317573305
273.101162671134
273.108198260821
273.1101867567552
273.1268430874302
273.1578329799357
274.6188395533063
286.9107885709344
338.7272623921383
347.6177753307496
348.4818210819831
348.516753594459
348.5171697707372
348.5172954711009
348.517443386485
348.5175879903024
348.5176974495612
273.1482620455217
273.1500357600434
273.1533328173392
273.1582385255631
273.1647368331012
273.1731685424895
273.191880929464
273.2208198809237
273.2708841167398
273.3842664909769
274.3070638087795
280.8485837985942
274.9330792576415
280.2620689223513
324.3140052323506
344.9685005337868
348.354386172371
348.5167265574063
348.5169499640604
348.5170670230803
348.5172069826103
348.517346035631
348.5174512286013
290.6385706405322
290.8059554915623
291.1527295411652
291.6410637915113
292.626179014467
293.9767051856788
295.2103209446495
296.7413255560558
299.0813340842639
302.9756417019735
306.605059539627
311.6944513607859
297.0425619652277
280.7100064267042
305.8201398237117
343.0832002855624
348.4297297202043
348.5174668253848
348.5167469416017
348.5168677787934
348.5169997691989
348.51713092549
348.5172323056207
327.3309012891192
327.5621840860119
327.9544722552795
328.4917188539358
329.8349902904052
331.6767034774339
333.0139778585727
334.5352916702951
336.3499585680806
338.6166068670196
340.0260950403297
338.5166208606011
316.6877917732512
286.0558409503212
304.4730750892521
345.3172695909024
348.5636567930403
348.5161673798361
348.5165641478394
348.5166880672585
348.5168139133036
348.516939331815
348.5170421954905
353.9363097193809
353.8996847900885
353.8708040589091
353.7799733109426
353.5564055638871
353.3922294638846
353.3896208443831
353.2977431878962
352.9876384826404
352.0297438491631
349.2127490469911
341.8536128112237
329.5135708081175
318.1786223701696
319.9249278045696
348.5819110809954
348.5752658968872
348.5119657147318
348.5165587811749
348.5165155740463
348.5166432090469
348.5167667862087
348.5168748623739
348.2928449614721
348.2904760436141
348.2870538840593
348.2873220476378
348.2906139904896
348.2665413106095
348.200077321831
348.0814434109872
347.8214215191951
347.2706921825035
346.3099397762845
344.8602081291628
342.5145489986216
339.5129319745313
339.3541857567117
349.3763506614247
348.5293976978768
348.5100236173909
348.5166044040195
348.516346906734
348.5164851221696
348.516612070528
348.5167291401298
348.4702765227294
348.4703752256746
348.4705761756897
348.4706034672249
348.4708324522751
348.473752933419
348.4812909887411
348.4967955373597
348.5240526378655
348.5349238191213
348.412509553954
347.9865661873804
347.2619874251325
346.5737545885784
346.537360154902
348.9915841526526
348.5141163056411
348.511556289636
348.5164174069561
348.5161928840052
348.5163387908998
348.5164709737001
348.5165951966966
348.5191544297297
348.5192709728359
348.5193677748376
348.5194749202201
348.5195601406784
348.5195255453064
348.5192530707515
348.5182590551788
348.5152690654019
348.5084797710657
348.4939953135466
348.4563743117749
348.368429570948
348.2485805223527
348.2235038551217
348.6469689366629
348.5156048855856
348.5138361252404
348.5160930495841
348.5160565892154
348.5162044738549
348.5163424710334
348.5164721601561
348.5121682054935
348.5122026238708
348.5122613580909
348.5123053154189
348.5123174106776
348.5123034358135
348.5122947602258
348.5123534397098
348.5125639068806
348.5129329068208
348.5131014936132
348.5118892932927
348.5070067707015
348.497698980257
348.4938324192278
348.5343628538114
348.516018682668
348.5150627932198
348.5158309230803
348.5159304095209
348.516078461977
348.5162186988231
348.5163485086782
348.5127336429119
348.5127840305194
348.512858961246
348.5129302762631
348.5129806527303
348.5130085198086
348.5130307472306
348.5130757127394
348.5131699017296
348.5133267962293
348.5135486726676
348.5138238354998
348.5140786803613
348.514195876794
348.5144735808693
348.5164845529748
348.5154391851103
348.5153660184386
348.5156601312038
348.5158109486503
348.5159580109554
348.5160976205748
348.5162255496742
348.5127849945767
348.5128371672694
348.5129173216604
348.5130006878832
348.5130707450186
348.5131216467602
348.5131613854859
348.5132087497371
348.513285324906
348.5134060690548
348.5135750755009
348.5137890238991
348.51404129287
348.5143164895699
348.5146096627354
348.5149407785638
348.5151505052482
348.5153325163172
348.5155336456396
348.5156932854827
348.5158351846057
348.5159690224684
348.516090920274
348.5128431382399
348.5128946604767
348.5129750823309
348.5130642161119
348.5131475499478
348.5132172109024
348.5132751985523
348.5133327259501
348.5134057872747
348.5135086564043
348.5136490652355
348.5138274853067
348.514039521321
348.5142759157283
348.514527555014
348.5147851588295
348.5150233849812
348.5152336086159
348.5154174515907
348.5155719970557
348.515706170825
348.5158331827868
348.5159495155738
348.5128869149601
348.5129348906711
348.5130107212823
348.5130989697308
348.5131879197127
348.5132692545296
348.5133411896657
348.5134093135422
348.5134845784417
348.5135790285982
348.5137014187181
348.5138550556174
348.5140382152389
348.5142450159871
348.5144669618157
348.5146958044783
348.5149180058923
348.5151192696405
348.5152928226257
348.5154386392347
348.5155636795912
348.5156817596783
348.5157905889008
348.5129165658574
348.5129587391788
348.5130261201384
348.5131078821138
348.5131953386427
348.5132809828552
348.5133610750859
348.5134372668772
348.5135161269125
348.5136066225635
348.5137168040973
348.5138513661781
348.5140108643391
348.514192059036
348.5143883539538
348.5145928394556
348.5147992187393
348.5149877714242
348.5151525993111
348.5152912409118
348.5154096072467
348.515521323192
348.5156248866149
348.512932338785
348.5129672994643
348.5130238560972
348.5130951705377
348.5131755802806
348.5132589476815
348.5133408766536
348.5134205780385
348.5135013210951
348.5135891348005
348.513690526512
348.5138103429682
348.5139506027789
348.5141102785235
348.5142853852028
348.5144701185463
348.5146589367919
348.5148363241098
348.5149947880417
348.5151287825352
348.5152426558321
348.5153484640666
348.5154458142341
348.5129341532982
348.5129615012696
348.5130064992254
348.513065639165
348.5131357544774
348.5132123149752
348.5132911006476
348.5133699692128
348.5134498590302
348.5135343141302
348.5136281348359
348.5137357452988
348.5138600092199
348.5140013760926
348.5141578769297
348.514325608843
348.5145000489793
348.5146701112508
348.5148249245599
348.5149575867351
348.5150705780768
348.5151741087707
348.5152678303177
348.5129225731268
348.5129426909742
348.5129768952505
348.5130239952186
348.513082832697
348.513150334215
348.5132228129934
348.5132976217723
348.5133742481314
348.5134543912609
348.5135412948594
348.5136386312982
348.5137494983773
348.5138755023228
348.5140162939665
348.5141697024719
348.5143316871255
348.5144971203105
348.5146492778998
348.5147820011431
348.5148952200121
348.514996649155
348.5150860115475
348.5128973911648
348.5129114466637
348.5129367571661
348.5129737506121
348.5130224621976
348.5130809867467
348.513146296622
348.5132156783432
348.5132877812784
348.5133630287465
348.5134434262874
348.5135318915899
348.5136314625005
348.5137444522633
348.5138722552776
348.5140141584418
348.5141671932
348.514325668331
348.5144759844773
348.5146097499423
348.5147245858021
348.5148260019392
348.5149129125878
348.5128591584956
348.5128685707824
348.5128875251751
348.5129170878826
348.5129580739026
348.5130092511654
348.5130681754778
348.5131322527534
348.5131997475104
348.5132702768282
348.5133448806502
348.5134257471699
348.5135156638317
348.5136176551864
348.5137341593223
348.5138656373504
348.5140100646854
348.5141617553172
348.5143096494127
348.5144435721393
348.5145589514379
348.5146593661074
348.5147432149924
348.5128075321526
348.512814103015
348.5128294075496
348.5128548147879
348.5128911352377
348.5129375539385
348.5129919730085
348.5130520070056
348.5131157372334
348.513182245374
348.5132518729279
348.5133261493208
348.5134077346938
348.51350008818
348.513606352359
348.5137280195579
348.5138640714214
348.5140091319104
348.5141540853098
348.5142870525403
348.5144026163294
348.5145027241005
348.514584906815
348.5127434021874
348.5127486031487
348.5127627254907
348.5127866693604
348.5128211689376
348.5128653772862
348.5129173948633
348.512974968026
348.5130361099151
348.5130995660165
348.5131650945899
348.5132338021494
348.5133082577543
348.5133921191065
348.513489054646
348.5136016020098
348.5137295500018
348.5138678739124
348.5140084607816
348.514138767788
348.5142527441653
348.5143511964093
348.5144314619341
348.5126667614432
348.5126722112729
348.5126870724628
348.5127118813451
348.5127468170699
348.5127909075114
348.5128423090894
348.5128988519022
348.5129585079916
348.5130197105602
348.5130818861796
348.5131458989838
348.5132141953399
348.513290544388
348.5133792125179
348.5134834680811
348.5136038354029
348.5137355100456
348.5138710642178
348.5139978464065
348.5141095784933
348.5142062853521
348.5142851825385
348.5125791580098
348.5125858314365
348.5126026689965
348.5126294552951
348.512666024964
348.5127111122816
348.5127628565183
348.5128191495293
348.5128778347005
348.5129372462377
348.51299661824
348.5130566179316
348.5131196636022
348.5131896818326
348.5132714385909
348.5133687203034
348.5134825232458
348.5136081863488
348.5137382176101
348.5138605281803
348.5139685324816
348.5140621113869
348.5141391295986
348.5124818701075
348.5124904476631
348.5125095445864
348.5125385490202
348.5125768210351
348.512622952826
348.5126750564166
348.5127309570598
348.5127885212233
348.5128460027147
348.5129025736914
348.5129588925319
348.5130174755976
348.5130826214219
348.5131594620021
348.5132520533206
348.5133614797437
348.5134827848748
348.5136079419311
348.5137253076325
348.5138283969281
348.5139173359682
348.5139910520176
348.5123770586316
348.5123870382765
348.5124075045421
348.5124374037288
348.5124760068613
348.5125218276947
348.5125730251116
348.5126274871663
348.512683163826
348.5127383559991
348.5127923453691
348.512846016163
348.5129021487234
348.5129652973467
348.5130405995451
348.513131725447
348.5132390380841
348.5133567645391
348.5134762839677
348.5135865617357
348.513681929574
348.5137633359536
348.5138315818647
348.5122616743619
348.5122720337065
348.5122902432927
348.5123164950077
348.5123500741192
348.5123900288353
348.5124352280311
348.5124844540921
348.5125365499237
348.5125907233988
348.5126468620837
348.5127057796008
348.5127692677858
348.5128397274884
348.5129192484592
348.5130084762657
348.5131060688453
348.5132070707897
348.513306648754
348.5133995010578
348.5134848992062
348.5135659014997
348.5136428177123
347.6820233288162
348.1147734339734
348.3563047180373
348.4616801027951
348.0179967356979
348.2491743595392
348.3862917524574
348.4585813814941
348.2785558832688
348.3870867747953
348.4534913141037
348.4898699254386
348.4256225766536
348.4690146737801
348.4951941488638
348.5093240274408
348.4885859055546
348.5036848617286
348.5124852053193
348.5171410526563
348.5108436645833
348.5155742663333
348.5182161481467
348.519609758429
348.5176729995947
348.5190336899475
348.5197698992219
348.5201889091757
348.5194757596744
348.5198418308382
348.5200474213705
348.5202008872816
348.5197955164635
348.5198963647923
348.5199706599857
348.5200549626155
348.5197058043932
348.5197504341868
348.5197997686388
348.5198635136605
348.5194953491998
348.5195388024247
348.5195929136112
348.5196516198253
348.5192403585823
348.5192974108604
348.5193641395197
348.5194237332638
348.5189523259244
348.5190256551803
348.5191110734081
348.519179754256
348.5186471456746
348.5187388757426
348.5188427525935
348.5189240694634
348.5183281675655
348.5184429133047
348.5185673039393
348.5186683002566
348.5180232243759
348.5181577407868
348.5182921360753
348.5184031762531
348.517742863318
348.5178880858989
348.5180271789454
348.5181411493391
348.5175021899419
348.5176474130022
348.5177811938195
348.5178916891056
348.5172961511023
348.5174331086084
348.5175573041864
348.5176595231349
348.5171238665708
348.5172440557076
348.5173516343558
348.5174416063022
348.5169706295824
348.5170703897952
348.5171604034884
348.517236479109
348.5168331879377
348.5169083013805
348.5169780267228
348.5170402497533
348.5166984271461
348.516750187796
348.5168020248889
348.5168516998443
348.5165681656756
348.516595736935
348.5166296359918
348.5166684996078
348.5164328180621
348.5164404005939
348.5164600973447
348.5164899694026
348.5162972335697
348.5162855269819
348.5162919239643
348.5163144985326
348.5161513847893
348.5161264076962
348.5161240401056
348.5161413983014
348.5160013679514
348.5159650835008
348.5159556634117
348.5159696856407
348.5158374028158
348.5157970209573
348.5157856167747
348.5157989314919
348.5156691482424
348.5156267806583
348.5156150360799
348.5156292597429
348.5154897116059
348.5154512947923
348.5154431914133
348.5154606222777
348.5153118532159
348.51527752361
348.5152731120114
348.515294047081
348.5151306009141
348.5151031803919
348.5151040882628
348.5151295357763
348.5149575024309
348.5149351228274
348.5149397816249
348.5149684684355
348.5147877513252
348.5147706084326
348.5147787724463
348.5148104392088
348.5146290471701
348.5146144628185
348.5146238947045
348.514656449826
348.5144756157721
348.5144627472447
348.5144725400921
348.5145053854037
348.5143292655798
348.5143165141572
348.5143255867417
348.5143575062944
348.514183682462
348.5141714037189
348.5141801724271
348.5142115908861
348.5140357322734
348.5140249982755
348.514034727275
348.5140664785704
348.5138792255276
348.5138748937272
348.5138889585139
348.5139233341433
348.5137067936891
348.5137178103179
348.5137446574396
348.5137902678894
348.5099105788608
348.5198046872893
348.521346158682
348.5214893089534
348.5214543215229
348.5214212546338
348.5213997760036
348.5213891919084
348.5213857063047
348.5213859036111
348.5213875034439
348.521389450497
348.5213908743906
348.5213913528459
348.5213903605214
348.5213878286372
348.52138542965
348.5213866552144
348.5214227771449
348.5055121989394
348.5183857864978
348.5209677612979
348.521306671554
348.5213130742682
348.5212891084678
348.5212717367985
348.5212621721619
348.5212575597839
348.5212556436091
348.5212549517476
348.5212545944389
348.5212538698123
348.5212523629957
348.5212497390494
348.5212460549902
348.5212427451123
348.521243070446
348.5212847126282
348.5137975342452
348.5198693995888
348.521011436853
348.5211620963204
348.5211608930948
348.5211437392946
348.5211298847253
348.5211205649256
348.5211146999887
348.5211111233488
348.5211087319304
348.521106697965
348.521104359185
348.5211013444411
348.5210973416931
348.521092422714
348.521088340655
348.521087402811
348.521133039244
348.5184090433684
348.5205848545094
348.520964234008
348.5210079602674
348.5210034055651
348.5209918824879
348.5209809094601
348.520972204522
348.5209659503832
348.5209615661706
348.5209581758687
348.5209550008012
348.5209514890561
348.5209472924217
348.5209421538426
348.5209362632597
348.5209310232752
348.5209298271262
348.5209765247756
348.5200856345623
348.5207457954185
348.5208417787814
348.5208473769438
348.5208423792735
348.5208342967116
348.520825798455
348.5208185651157
348.5208130995586
348.520808998086
348.5208054820432
348.5208018947191
348.5207977822174
348.5207928723478
348.5207869987966
348.5207803197637
348.5207747749101
348.5207726789152
348.5208201774333
348.5204910932187
348.5206640433522
348.5206768848997
348.5206747584626
348.5206720491464
348.5206672926612
348.5206618389192
348.520657092946
348.5206534940301
348.5206506241045
348.5206478024432
348.5206444680682
348.5206402904192
348.5206350962231
348.5206287775713
348.5206216816435
348.5206154234785
348.5206136058802
348.520660046641
348.5204573397965
348.5204932544268
348.5204900843883
348.5204910241768
348.5204925480851
348.5204920429018
348.5204906555574
348.5204895145474
348.520488851427
348.5204881977154
348.5204869535423
348.5204846545722
348.5204810954251
348.5204761760964
348.5204698976167
348.5204626536704
348.5204566611852
348.5204543190999
348.5205000467687
348.520289509744
348.5202910196559
348.5202907674919
348.5202975681628
348.5203039846949
348.5203082483414
348.5203115016282
348.5203145980662
348.5203175320988
348.5203197784205
348.5203207504197
348.5203200862357
348.5203176965202
348.5203135436018
348.5203076712552
348.5203007094891
348.520294540393
348.5202928422761
348.5203362617664
348.5200798652536
348.5200758986433
348.5200836191154
348.5200969712622