/*--------------------------------*- C++ -*----------------------------------*\
| =========                 |                                                 |
| \\      /  F ield         | OpenFOAM: The Open Source CFD Toolbox           |
|  \\    /   O peration     | Version:  2206                                  |
|   \\  /    A nd           | Website:  www.openfoam.com                      |
|    \\/     M anipulation  |                                                 |
\*---------------------------------------------------------------------------*/
FoamFile
{
    version     2.0;
    format      ascii;
    arch        "LSB;label=32;scalar=64";
    class       volVectorField;
    location    "0.1";
    object      U;
}
// * * * * * * * * * * * * * * * * * * * * * * * * * * * * * * * * * * * * * //

dimensions      [0 1 -1 0 0 0 0];

internalField   nonuniform List<vector> 
2268
(
(0.03330905743717873 -0.01568749348706867 0)
(0.09226294455714898 -0.01588087426907212 0)
(0.1549699049013353 -0.01615653387487557 0)
(0.219220483639837 -0.01662460247843031 -1.459743002617261e-24)
(0.2855286027494062 -0.01728903788951239 -3.473294925600496e-24)
(0.3546811069808163 -0.01816744838141602 -2.121851843421629e-24)
(0.427509571013304 -0.01929381770619851 -2.650544627833334e-24)
(0.504952475499752 -0.02071537089201469 -6.758293978202722e-24)
(0.5881590008568535 -0.02251137448752695 -8.768755307551218e-24)
(0.6782751064257272 -0.02474134545066737 -5.796240799507039e-24)
(0.7780099299744507 -0.02780737075255204 0)
(0.8884427125703407 -0.0320194199672971 0)
(1.012792628761823 -0.03657058860647415 0)
(1.149988290473651 -0.03866072357414313 0)
(1.287611676176124 -0.03523081503170037 0)
(1.404036860687672 -0.02643376679399012 2.097013671099998e-23)
(1.480375253983473 -0.01619736131517479 2.624679198784124e-23)
(1.516258049983159 -0.01058139191912587 3.223082159253379e-23)
(1.527413090329039 -0.01601924764376149 1.161109530553157e-23)
(1.541458711964696 -0.01793418452693184 2.616186172287045e-23)
(1.58862430006328 -0.01772711010720018 0)
(1.605767427854152 0.1552851415562483 0)
(0.6160407632897007 0.2449409897869962 0)
(0.03335064547782188 -0.04349103486858499 0)
(0.09245831450208393 -0.04406514592113704 0)
(0.1553037757034203 -0.04484130739726545 0)
(0.2196477869168401 -0.04609809346794697 -2.23545457066657e-24)
(0.2860441227170877 -0.04785208766708267 -5.655600796884771e-24)
(0.35527413545562 -0.05014502848518129 -3.670565677740049e-24)
(0.428163073941679 -0.05305289495239764 -4.847105987132657e-24)
(0.5056402783223818 -0.05667767084061482 -1.298092291086361e-23)
(0.588871588641549 -0.06118388941672071 -1.75500615214814e-23)
(0.6789098341852821 -0.06668803343807669 -1.200066971991932e-23)
(0.7785348263189841 -0.07385328261542055 0)
(0.8882122521100826 -0.08321782826654488 0)
(1.010824426225565 -0.0935915064640836 0)
(1.146717278084179 -0.09896714570963552 0)
(1.285676851604288 -0.09098086454241894 0)
(1.407617932128925 -0.06801007189966989 5.663920081232303e-23)
(1.495389932010601 -0.04023602864412962 7.905187335266872e-23)
(1.548801478535179 -0.02395790706175038 8.617279194756562e-23)
(1.590489930778773 -0.02969817345526379 8.067577746762086e-23)
(1.648447945068687 -0.02931152413579614 1.410006928927154e-22)
(1.642253350070327 0.05880232913339532 0)
(0.9698856595987138 0.401866222355471 0)
(0.3987615795968821 0.552065615062329 0)
(0.03314552710069423 -0.07260557689541164 0)
(0.09204320554232864 -0.07351539255441512 0)
(0.1546531694952918 -0.07486696402290267 0)
(0.2186971071662068 -0.07700232315858349 0)
(0.2847725385396407 -0.07996309271408486 0)
(0.3536472218563019 -0.08382825007127709 0)
(0.4261307872892843 -0.08872745784218233 0)
(0.5031290693619251 -0.09483507955030926 0)
(0.5858151086155782 -0.1024215241684896 0)
(0.6750874548720015 -0.1117179258040214 0)
(0.7737958996963884 -0.1236128712828369 0)
(0.8820069795302325 -0.1389049069256931 0)
(1.002343010449958 -0.1565248894951519 0)
(1.136101903692402 -0.1677506177727573 0)
(1.274098475456138 -0.158755963669801 0)
(1.396234010972799 -0.1260089680172728 0)
(1.484563685751268 -0.08788751707380114 0)
(1.542657737752189 -0.06968436577217106 0)
(1.596975309240271 -0.07230275003018717 0)
(1.966896520685591 0.01544653162584426 0)
(1.322035766814063 0.3152791250284925 0)
(0.7223618629613544 0.646555939015769 0)
(0.2957637244513096 0.8308419554956938 0)
(0.03286081037027144 -0.1016361937160862 0)
(0.09143478285126797 -0.1028293551334207 0)
(0.1536697616006214 -0.1047287896032973 0)
(0.2172638520310477 -0.1077005434890783 0)
(0.2828535016870089 -0.1118128079639603 0)
(0.3511854798652783 -0.1171814174423336 0)
(0.4230448885317328 -0.1239840902453977 0)
(0.4993004055739027 -0.132459500082857 0)
(0.5811193771242086 -0.1429648699243197 0)
(0.6692108609668919 -0.1558368180778798 0)
(0.7665107568668493 -0.1721110491355907 0)
(0.8728481401846085 -0.1927637676862908 0)
(0.9907717305499013 -0.2170740177513127 0)
(1.122265031335243 -0.2342469251486235 0)
(1.259252532355959 -0.2254605541718749 0)
(1.381304813312001 -0.1861368032253678 0)
(1.471775195297739 -0.1449063799719889 0)
(1.545583577455759 -0.1230285858059548 0)
(1.737049892145935 -0.1625453689219733 0)
(1.550572910556157 0.246832020261489 0)
(1.034176034700654 0.5101796268562021 0)
(0.5761395141339909 0.8519555981845486 0)
(0.2374257113580356 1.047492181384086 0)
(0.03249310217784861 -0.1303015299426735 0)
(0.09061428364487389 -0.1317807930228623 0)
(0.1523188820403245 -0.1342422055022118 -1.646214484935889e-23)
(0.2153004808971219 -0.1380483895369325 -1.202198424137527e-23)
(0.2802225161772354 -0.1432958224908188 0)
(0.3478023538377655 -0.1501369219126304 2.86613077689075e-24)
(0.4187908793281778 -0.1587940191322595 0)
(0.494007154030034 -0.1695653724817441 -3.267109823589722e-23)
(0.5745974090992727 -0.1828803528102516 0)
(0.661058151055502 -0.1991866912444195 -9.213843094833232e-23)
(0.7564442469737569 -0.2196411748015905 -1.406504589414119e-22)
(0.8603853597755314 -0.2454188533417325 0)
(0.9753538590592921 -0.2764541689852205 0)
(1.103495782385841 -0.3005807345417591 0)
(1.237025155409379 -0.2951394201372266 0)
(1.353488110634955 -0.2569325772692701 1.465607742255617e-21)
(1.446270114471645 -0.2217422511374736 2.110293812359534e-21)
(1.561748233363527 -0.2022551515768384 0)
(1.885185813046548 0.06406499091232926 0)
(1.296061841202161 0.3593909413680818 0)
(0.8406913449199199 0.6967654726719071 0)
(0.4815809104410661 1.02558139951618 0)
(0.1975445099916105 1.217250283078229 0)
(0.03202756991933826 -0.1579142557729616 3.628555963415418e-23)
(0.08954271751829151 -0.1596596258157943 3.41426796298714e-23)
(0.1505444827226238 -0.1626631520345435 -2.218618371230043e-23)
(0.2127382836608166 -0.1672598422074879 -1.788799631455096e-23)
(0.276797855036872 -0.1735771128753712 0)
(0.3434050330182205 -0.1818011889781758 -2.681089519324376e-24)
(0.4132705147512356 -0.1921937213766191 0)
(0.4871598154525432 -0.2051057401579068 9.58395213391791e-24)
(0.5661875570061977 -0.2210235050872901 7.309842248505726e-23)
(0.6506358989710257 -0.2405090831821288 -9.254693577250071e-23)
(0.7437225971806324 -0.2647772131672956 -1.442672221273513e-22)
(0.8448305878759982 -0.2952071825248948 0)
(0.9561277740298734 -0.3327303398459802 -6.086523478501628e-22)
(1.079071149467004 -0.3647020082617055 -9.958480646977685e-22)
(1.204673384665532 -0.3667269690529907 -1.362856140840731e-21)
(1.31398848147053 -0.3388553972768211 -6.043625232332617e-22)
(1.423084517403106 -0.318113607662135 2.005506746580767e-21)
(1.99606253498825 -0.1357832923764837 0)
(1.518099147074219 0.2028803523119964 0)
(1.044025497896821 0.5158263322292385 0)
(0.6931280910590263 0.8682072497800967 0)
(0.4065470209957894 1.163113214185855 0)
(0.1826907727361129 1.362352877492583 0)
(0.03147810294167357 -0.1855811581637971 4.900124649677631e-24)
(0.08823679290096161 -0.1874838418712248 1.103609411943915e-24)
(0.1483586730159392 -0.1909419967865439 0)
(0.2095957845275502 -0.1962346653098714 0)
(0.2726129602872114 -0.2035250835713296 0)
(0.3380562869417756 -0.2130311563623666 0)
(0.4065969455410794 -0.2250496216918579 0)
(0.478952353900587 -0.239978953607393 9.651818233563556e-23)
(0.5561990672520609 -0.2583556878817209 1.408928871262742e-22)
(0.638434656220175 -0.280862955378978 0)
(0.7290820441050597 -0.3086525402763661 0)
(0.8271362233661669 -0.3431371620104342 0)
(0.9338581699240079 -0.3865027080382861 -8.208467482999008e-22)
(1.048306006056414 -0.4269865136503412 -1.359165201154787e-21)
(1.158651122957851 -0.4430726523160725 -1.754972686996753e-21)
(1.262385711207577 -0.4300481393137479 -3.155817038012023e-21)
(1.426887940711531 -0.4598169601233146 0)
(1.687609003644289 0.009791837599702161 0)
(1.205664335069911 0.3260514656592899 0)
(0.829615536584138 0.6758124785526841 0)
(0.5712039410621561 1.005022206540754 0)
(0.3676083666434437 1.268269051022944 0)
(0.1875056413361358 1.4944069906444 0)
(0.03090352230726494 -0.2178475746370928 0)
(0.08679401398367105 -0.2199425763870154 0)
(0.1458638519495276 -0.2239297597392479 0)
(0.2059976084323752 -0.2300204830827597 -4.386561335380862e-23)
(0.2678242612155776 -0.2384175739250119 -1.182365499274589e-22)
(0.3319579618153093 -0.2493728228827802 -7.980316149471524e-23)
(0.3990330277179673 -0.2632206452156181 -1.079408331242771e-22)
(0.4697223380538215 -0.2804094316703415 -1.462584952435683e-22)
(0.5450500244895576 -0.3015353262117044 0)
(0.6249732567329318 -0.327406109822001 0)
(0.7132126137437542 -0.3591216642999685 0)
(0.8082397020757496 -0.3978155061304803 0)
(0.9093577399909041 -0.4467455571491626 6.863597060379738e-22)
(1.010365778126942 -0.4959405757842216 1.160571580498813e-21)
(1.10099200351861 -0.5294501089166334 1.755698918411056e-21)
(1.208347725146615 -0.5432543564713104 3.848657479032488e-21)
(1.612175745423206 -0.3962995333094862 1.333673175286818e-21)
(1.312337155693102 0.09376626168764603 5.619480541734028e-21)
(0.9315453843838022 0.4530428135169763 5.557495078682545e-21)
(0.6580110422807801 0.8097962357490537 4.736373226641478e-21)
(0.4680093816850285 1.09543197023589 0)
(0.3777535619601318 1.334192611928885 0)
(0.2201964290301102 1.641669018023175 0)
(0.01398723652876593 -0.005484064529058478 0)
(0.04477775630992633 -0.007384902328556632 -1.902541286123794e-21)
(0.07807585964068886 -0.006085311628798198 -1.992842801756785e-21)
(0.1031888361189377 -0.003843943027483396 3.162071311152403e-28)
(0.1179333244581671 -0.001776532159768626 -7.660880509349235e-22)
(0.1237460546873165 -0.0002064772522136338 -6.486972855558703e-22)
(0.1230875646120745 0.0008889962303066088 0)
(0.1180855150156092 0.001606444587993709 0)
(0.110349355603783 0.002049757621804758 -1.181160357235295e-21)
(0.1009893970689123 0.002307255050320204 -3.345134976529606e-22)
(0.09072752880916314 0.002444519402100522 5.679556209267478e-22)
(0.08001765779673567 0.002506827017954452 4.802091560420037e-22)
(0.06913571945085903 0.002524331131924092 4.025165545033403e-22)
(0.05824133784776997 0.002516909297958589 0)
(0.0474181371144913 0.002497571302673842 0)
(0.03670016770976953 0.002474765800291384 -1.956066364762849e-25)
(0.02608960492708685 0.002453822563653276 -2.966427592775875e-22)
(0.01557829965910626 0.002436721976639826 -1.821457408283677e-22)
(0.00520023764203968 0.002440155950358717 4.117699891594883e-25)
(0.01403451229248639 -0.01615441633214749 0)
(0.04705577507233456 -0.02289774633862125 -2.040819972890755e-21)
(0.08350422962862164 -0.01892629739457241 -2.055433492716235e-21)
(0.1101403958471776 -0.01203631027580534 4.633776336380978e-25)
(0.125367954921061 -0.00556652122727252 -7.67404580149514e-22)
(0.1310666115345045 -0.000603364588480947 -6.480606205911436e-22)
(0.1299409228501982 0.002829034570867511 0)
(0.1243476403204122 0.005043271637251431 0)
(0.1159874689600888 0.006396339560031854 0)
(0.106005678601837 0.007174728080877202 6.639719353764374e-22)
(0.09513827058272741 0.00758465867047863 5.63985960867327e-22)
(0.08384419314231219 0.007766259140388798 4.771835033643874e-22)
(0.07240030550820321 0.00781213490055425 4.002606201670919e-22)
(0.06096513839614704 0.00778303681004857 0)
(0.04962007671596991 0.007718623794914749 0)
(0.03839622722427113 0.007644637466918565 -6.485622135302933e-25)
(0.02729187414287788 0.007577433797281648 -2.961115222634651e-22)
(0.01629425501009638 0.007525262605528663 -1.809104740120456e-22)
(0.0054165634146791 0.007425358963461272 1.380686290721733e-24)
(0.01222399386563902 -0.02655971989000266 0)
(0.04640422849840577 -0.04001981372634062 -1.159070472673498e-21)
(0.08650382233781627 -0.0325083110338301 -1.090718118164888e-21)
(0.1139306667667499 -0.02032190451465285 0)
(0.1286739945694228 -0.009157877139781227 0)
(0.1335534678906781 -0.0007518238508443593 0)
(0.1316889370898967 0.004993831382694897 0)
(0.1255241188634326 0.008657860755475425 0)
(0.116759482606898 0.01087999596175562 -1.154330708953339e-21)
(0.1065023126761886 0.01214862887649034 3.27278567314261e-22)
(0.09545158373234197 0.01280905497069442 1.113440540164388e-21)
(0.08403710789728741 0.01309392036253977 0)
(0.07251515255656651 0.01315654209987165 0)
(0.0610303151888428 0.0130972861351077 0)
(0.04965459013097448 0.01298159043045891 0)
(0.0384127001564241 0.01285193295870384 0)
(0.0272983744459623 0.01273555343151837 -2.934276812002572e-22)
(0.01629698249909248 0.01264870287294952 -1.81086817695603e-22)
(0.00541671145321431 0.01248922481268619 0)
(0.009767555834660348 -0.03524220126314668 0)
(0.04526876837040111 -0.0595327360819874 -1.64335623852074e-21)
(0.09132538168551035 -0.04716336730663597 -1.248282694436436e-21)
(0.1197964193507646 -0.02860470716350795 0)
(0.1336376294910679 -0.01232021013385053 0)
(0.1371547706294751 -0.0004306372116551344 0)
(0.1340785246727537 0.007527559325739527 0)
(0.1270143906524171 0.01254543312672189 0)
(0.1176422252243322 0.01555580849786433 -2.25801508684601e-21)
(0.1069902597819198 0.01725576212112022 -1.28279689931461e-21)
(0.09569120629106022 0.01812656046283738 5.46815158907245e-22)
(0.08412583744716103 0.01848778063741643 4.644012565196568e-22)
(0.07251694069443827 0.01854923014511013 3.908811297056749e-22)
(0.06098695578972761 0.01844792166153228 0)
(0.04959330998751801 0.01827308231013308 0)
(0.03835113116725733 0.01808265014289905 -2.068587939830069e-23)
(0.02724772648646337 0.01791392001036997 -1.667912095778304e-22)
(0.01626458885350985 0.01778972462212478 -8.983745489665569e-23)
(0.005405576347100908 0.01756246946812487 0)
(0.01045665300027737 -0.03996073202331157 0)
(0.0447220208210555 -0.08221200603634039 -1.725298362444662e-21)
(0.09869880874615801 -0.0632953194177739 -1.377491839307868e-21)
(0.1281700681331459 -0.03671912136829952 4.787179225104597e-23)
(0.1404495548351447 -0.0147844185940742 0)
(0.1419438129653089 0.0005876630962001363 0)
(0.1371841781624507 0.01058708854278589 0)
(0.1289253856255932 0.01679855324970951 0)
(0.1187561901816118 0.02047121562412152 -1.096250637282111e-21)
(0.1075935243383557 0.02251471148513997 -3.123629631323634e-22)
(0.09597628270951455 0.02353731475196333 5.344794199256438e-22)
(0.08421914526357854 0.02393649970021043 9.109030617614702e-22)
(0.07250113943440906 0.02397180698575892 3.844755090916111e-22)
(0.06091591059545286 0.02381224649258946 -3.19301253313099e-22)
(0.04950205271506723 0.02356779281827732 0)
(0.03826234515727799 0.02330989183846299 -2.722605964443928e-23)
(0.02717587321748433 0.02308460776091162 -5.592863280172462e-23)
(0.01621854356905003 0.02292022250989175 -2.843886102708236e-23)
(0.005389547469574523 0.02262453783953318 0)
(0.02991073477312265 -0.04609493275505549 0)
(0.05079370211272765 -0.1077094761042365 -1.850705036167148e-21)
(0.110563512739215 -0.08090879419742639 -1.500221648273141e-21)
(0.1397249986696022 -0.04436871238788072 -2.664466388721462e-23)
(0.1492304439823194 -0.0162741706191993 0)
(0.1478735970493296 0.002503494914581834 0)
(0.1409319917307221 0.01433558456070651 0)
(0.1311909529056248 0.02151034680959371 2.277534604682302e-23)
(0.1200551227061046 0.02568319404843537 2.210792912057488e-24)
(0.1082826885668227 0.02796116673866317 1.209819422316568e-21)
(0.09628881636003843 0.02906259346653915 1.064073897776064e-21)
(0.08430649496468261 0.02945201000535654 9.219462725642962e-22)
(0.07246183962794288 0.02943016510399886 3.77146394846023e-22)
(0.06081403648674445 0.02919221219414487 -3.141731884281107e-22)
(0.04937927160267205 0.02886509052434624 0)
(0.0381456581403904 0.02853132904548292 0)
(0.0270825119232868 0.02824418991575445 -3.462471802601369e-23)
(0.01615889280302267 0.02803637017040431 -8.206042044103531e-23)
(0.005368702685738339 0.02767156413004929 -4.729620143500728e-23)
(0.1042666027301166 -0.08136012454869691 0)
(0.08267539155685918 -0.1318618632874758 -5.880312140573643e-21)
(0.1327987047650121 -0.09700894085203526 -3.497972854829797e-21)
(0.1561190357628079 -0.05061053931650775 -1.610327935792332e-22)
(0.1602354794403278 -0.01617162831681356 0)
(0.1548836036804964 0.005660170676263709 0)
(0.1452104810096432 0.01892508014654546 0)
(0.1337138487585161 0.02677247597650866 2.231950751164235e-23)
(0.1214756557280203 0.03124810892144369 -1.310038801710161e-24)
(0.109015688343826 0.03362840833042864 5.824600459273692e-22)
(0.09660100883168575 0.03472237001651603 5.345977290489502e-22)
(0.08436983718044594 0.03504618103242042 9.065581814458992e-22)
(0.07238735516545468 0.03493095688342623 7.38222328973668e-22)
(0.06067376985738345 0.03459103295232383 0)
(0.04922009208959234 0.03416588743782049 0)
(0.03799796666815006 0.03374631937303375 0)
(0.02696572950356274 0.03339098602106939 0)
(0.01608468809274391 0.03313588823941767 -5.583300827123391e-23)
(0.005342949482145323 0.03270064539514295 -5.628336938478812e-23)
(0.2434053644289009 -0.148980845729732 1.723259768761659e-21)
(0.1674438661485445 -0.1482621718220269 -7.55194717018312e-21)
(0.1774195671587928 -0.1034700272634155 -3.851431708216126e-21)
(0.1812501546531115 -0.05173528073859984 0)
(0.1742430740252955 -0.01377551881406878 0)
(0.1628511194288481 0.01017526242898638 0)
(0.1498494165470356 0.02434854138024596 0)
(0.1363833290264646 0.03253946596696841 0)
(0.1229396697633477 0.03710148653985388 -9.607040065869973e-22)
(0.1097400241926915 0.03944644834986896 -2.792411970121799e-22)
(0.09687861861532708 0.04044704257498533 4.868906861051877e-22)
(0.08438667913809288 0.04065135546947047 4.217533903309847e-22)
(0.07226278671163795 0.04040891985383867 3.608962118487757e-22)
(0.06048519306759231 0.03994588169903489 0)
(0.04901790964710271 0.03940961831425618 5.998515454715348e-23)
(0.03781491023909139 0.03889627582593384 6.194183617152308e-23)
(0.02682273192054553 0.03846804536537888 -1.393692398201836e-22)
(0.01599438552197281 0.03816312631075867 -2.22861296645695e-23)
(0.005311328445548093 0.03765782596578707 6.459628246114059e-23)
(0.03027204620041462 -0.2539431886221007 0)
(0.08515184904824032 -0.2564330256077718 0)
(0.142985663819494 -0.2610638859743727 0)
(0.2018642426810665 -0.2681077654294518 3.590101792673918e-23)
(0.2623396618699178 -0.2777811080796337 4.980275898740917e-23)
(0.3249940353153258 -0.2903666157775028 9.817411893873848e-24)
(0.3904208295735645 -0.3062411615808521 1.461746133534309e-36)
(0.4592394519883849 -0.3259055180671416 -1.681686999902281e-36)
(0.5324045617398957 -0.3500350653255823 0)
(0.6097099051478935 -0.3794731982651187 1.381753828127877e-22)
(0.6953238310541885 -0.4155622676546374 2.156449838703536e-22)
(0.7872517238480348 -0.4592354752570589 -1.59331926528321e-22)
(0.8819767264034268 -0.5145848416202856 2.640433793758798e-22)
(0.9646071787485979 -0.5726060108749694 1.048444755837563e-21)
(1.037314565675181 -0.6134947798095465 1.971220627828987e-21)
(1.153733423379376 -0.6544766681805845 -5.533537199484447e-21)
(1.567227549746968 -0.1015829142331707 8.69306786371497e-21)
(0.9727605973059312 0.3289195920745112 4.093746078068022e-21)
(0.5985457892893532 0.683074702306693 7.685241313975537e-21)
(0.4477020518490159 0.9504704082087373 4.752548515623671e-21)
(0.4244900481378773 1.143318039407403 -5.608760697178514e-21)
(0.5431707063609896 1.307465179445604 -6.579776931480473e-21)
(0.7342777055816506 1.556096433196624 0)
(0.02872909452026322 -0.3130889532328612 0)
(0.08126093548401071 -0.3162029594988042 0)
(0.1364245101711155 -0.3217942378225673 0)
(0.1924718259216443 -0.3303072615521918 0)
(0.2498766793063525 -0.3419730189644101 0)
(0.3091146726436368 -0.3571106917468415 0)
(0.3706637071053212 -0.3761510193400891 -1.289688783792002e-22)
(0.4349825737135978 -0.399659963212658 -1.171765116986584e-22)
(0.5029171120343681 -0.4284137947750662 0)
(0.5736945489927965 -0.4632682987492028 -7.393261567604191e-23)
(0.652288463346717 -0.5059704828552511 -4.025196091451983e-23)
(0.7352510072569164 -0.5574387667057037 -1.250744240723194e-24)
(0.8118569112511712 -0.6245631964352819 -7.612222629212051e-23)
(0.864391246701064 -0.6975333071390489 0)
(0.9393788327393584 -0.7479573363150003 -1.129301790695086e-22)
(1.086460128689155 -0.8342427434004542 -5.116713480013865e-21)
(0.7324460675772478 0.1055161050576591 0)
(0.5120375434989364 0.5412908015216331 0)
(0.3813844981802147 0.8158855766633282 0)
(0.3498656361467615 0.9736609016624659 0)
(0.4002844326481821 1.06573455893903 -3.210349547596988e-21)
(0.541298559926737 1.12681546410977 -2.397505689652454e-21)
(0.741022673865611 1.120073325635603 0)
(0.02703805930051198 -0.3661218623965801 0)
(0.07688723630027437 -0.3696161033820786 0)
(0.1289913744946124 -0.3758672520040712 -4.464106875711237e-22)
(0.181792871545915 -0.3853976184842646 -4.455241396630796e-22)
(0.2356941831996672 -0.3984557816720633 0)
(0.291058047775518 -0.4153738898886125 0)
(0.348238510558952 -0.4365982727611588 0)
(0.407520442419623 -0.4627118305553407 0)
(0.469645649275531 -0.4945114593592455 0)
(0.533136953453044 -0.5328566724644094 0)
(0.6040855161003014 -0.5796054176132441 0)
(0.6764489520651761 -0.6353639201184561 0)
(0.728881957217537 -0.7107074958554522 0)
(0.7611657804324485 -0.7916461449483775 0)
(0.8481908212911758 -0.8538233986433655 0)
(0.9712114339408813 -0.3996877862597301 0)
(0.5254790136707622 0.2911275953672984 1.51569440989753e-21)
(0.3135994581115974 0.6760704823694417 2.228996629015227e-21)
(0.2656941394663848 0.8592091188282385 0)
(0.290556716332941 0.9320542858464016 -4.713216305817142e-21)
(0.3606954869516214 0.9553644145974619 -4.139234229188863e-21)
(0.4748446534391537 0.9467325864978873 0)
(0.6437584881263513 0.8776050132521571 0)
(0.02519201682143141 -0.4160810275045095 0)
(0.07202055258378333 -0.4199220809614222 0)
(0.120730773787585 -0.4267449610448358 -1.558235311965465e-21)
(0.1699491184410822 -0.4371225273627902 -1.580308992883072e-21)
(0.2199993726082752 -0.451310696014378 0)
(0.271132905340736 -0.4696392853186006 0)
(0.3235815683441972 -0.4925461427615324 0)
(0.3774585737134916 -0.5205969428035301 0)
(0.4334140699574587 -0.554555372270833 0)
(0.4892234143955497 -0.595227906683054 0)
(0.5524415009661535 -0.6443865439764502 0)
(0.6128999383710338 -0.7022169853552378 0)
(0.6403829820435796 -0.783534587361247 0)
(0.6715266665779847 -0.8645750000558654 0)
(0.7555398850934644 -0.9086882077073677 0)
(0.7463471878376527 -0.03555365722997555 0)
(0.3350802516029092 0.4857160546938971 7.087026172359969e-22)
(0.2015350294558363 0.7511204732334342 1.558746962700412e-21)
(0.2013064877939611 0.8495727674641154 0)
(0.2480449974501945 0.870459108435622 -8.927422086836179e-21)
(0.3177330102751396 0.8595891724394219 -8.813551274772856e-21)
(0.4095441271449098 0.8256683297244911 0)
(0.5343383551900527 0.7550350607874471 0)
(0.02323938399898187 -0.4626324906426348 0)
(0.06677797783650605 -0.4667406301585215 0)
(0.1118420945305285 -0.4739820603188684 -1.229003243483479e-21)
(0.1572343402725154 -0.4849716473883711 -1.258262547588728e-21)
(0.2031960829964224 -0.499959533302556 0)
(0.2498752600673385 -0.5192572371630371 0)
(0.297392380214219 -0.5432720311587255 0)
(0.345706484949132 -0.5725222879659911 0)
(0.3954021000035695 -0.6076923139011573 0)
(0.4435371037234155 -0.6494859870739127 0)
(0.4994247580428318 -0.6994252765978999 0)
(0.5468724400905635 -0.7573235495364146 0)
(0.5533153410940324 -0.8419321894414271 0)
(0.5932940949546258 -0.9200848415921855 0)
(0.6398839520658044 -0.9129955562920732 0)
(0.2126457823763822 0.1745017062679775 0)
(0.1499265187778386 0.5941395179773118 0)
(0.1314866930452996 0.7673892093721716 0)
(0.1623642591011855 0.8119782151284113 0)
(0.213207941998851 0.8085324805922438 -4.308318684645912e-21)
(0.2767863832362303 0.7846751536561646 -4.705532361081335e-21)
(0.3484517287060314 0.7415275387265837 0)
(0.4313497651639506 0.6736908359663398 0)
(0.02122087619845273 -0.5055634729968715 0)
(0.06126987895873237 -0.5098649723612603 0)
(0.1025155631037924 -0.5173803071474858 0)
(0.1439255639466643 -0.5287617588357441 3.70843696099672e-21)
(0.1856605988829126 -0.5442435395462073 3.874914394444841e-21)
(0.2277778089788083 -0.564106907959219 0)
(0.2703031057034204 -0.5887130522969662 0)
(0.3130694003093742 -0.6185137535270057 0)
(0.3566271042360078 -0.6540852265527056 0)
(0.3974122764903851 -0.696011099498157 0)
(0.4466737294556779 -0.7454522900093561 0)
(0.4805467038820753 -0.8020763576352765 0)
(0.4740496258089165 -0.8872582267114604 0)
(0.5232468376751586 -0.959598285002306 0)
(0.5446983665260682 -0.5408027775049375 0)
(0.1837983317210654 0.2626858928675652 0)
(0.08494205553667811 0.6367999295871675 0)
(0.09880217815344192 0.7510324256457089 0)
(0.1367306794307701 0.7675589528915996 5.909417294907127e-21)
(0.1832887354285506 0.7542185465796725 7.867697006046086e-21)
(0.236784367584071 0.7247637830902585 0)
(0.2913899023587639 0.6796721981891348 0)
(0.3462990499551771 0.6175852647198448 0)
(0.01917214515033183 -0.5447339121437603 0)
(0.05559959887082107 -0.5491605501573381 0)
(0.09292922188951903 -0.5568175053279968 0)
(0.1302797708328127 -0.5683907152032759 4.505920042812485e-21)
(0.1677374470815675 -0.584091425486855 4.724670522424981e-21)
(0.2052838833222592 -0.6041633795661353 5.74377642197185e-21)
(0.2428692396289861 -0.6289131327494645 6.195649196736468e-21)
(0.2802323429225824 -0.6587179191721098 0)
(0.3179122665398869 -0.6940357876355071 0)
(0.3518570209230908 -0.735346277860057 8.434895493207068e-21)
(0.3952166267036176 -0.7833960575610353 9.679350000333496e-21)
(0.415843771559648 -0.8380742824766564 0)
(0.4054412422197554 -0.9214604253933917 -1.347197161859621e-20)
(0.4572020617972699 -0.9797441729633811 -4.252282750173596e-20)
(0.4823452105769466 -0.2936151617796577 -4.706917523625869e-20)
(0.171887399157967 0.3930347961196277 0)
(0.06198078407051204 0.6673247201423265 0)
(0.0827683346094759 0.7288265883803702 0)
(0.1155551575454354 0.7277819010823704 3.711883138097941e-21)
(0.1551987513948061 0.7087551167800941 1.281797579755566e-20)
(0.1982484574663407 0.6774503621871356 8.500201910340145e-21)
(0.2399696103590865 0.6344398081392283 0)
(0.2781924316254766 0.5799718350376145 0)
(0.01712380935251525 -0.5800680237875223 0)
(0.0498602892334442 -0.5845585276662218 0)
(0.08324247833782696 -0.5922408229123269 0)
(0.1165246942592484 -0.6038311672560082 0)
(0.14972748056474 -0.6195136856118634 0)
(0.1827727280414092 -0.6394916902870397 6.779238072082766e-21)
(0.21555265901421 -0.664014435585961 7.317037017991158e-21)
(0.2477426875477466 -0.6933857995008061 0)
(0.2798754223206276 -0.7279499344262083 0)
(0.307570900598454 -0.7681190745679397 9.918673282310486e-21)
(0.3456124299351381 -0.814195693657093 1.130150576867289e-20)
(0.3539438873985225 -0.8666809545176392 0)
(0.3452886307620845 -0.9468470066693648 -1.541349302752933e-20)
(0.3944472484742744 -0.9909788368277981 -4.262446524427974e-20)
(0.3907121119667046 -0.05836984950559076 -1.700816798884952e-20)
(0.1146907489189974 0.5292241065053178 0)
(0.0398641682615546 0.688168704957691 0)
(0.06602055448454071 0.7070361470910197 0)
(0.09391528285897754 0.694510047663536 0)
(0.1271853899937221 0.6717999165760682 5.343070400844614e-21)
(0.1617462895001147 0.6405503531868915 7.019398261010987e-21)
(0.1942481634816898 0.6009652127544202 0)
(0.2223416116869576 0.5535252407467246 0)
(0.01510147065417155 -0.6115486351516709 0)
(0.04413291031101012 -0.6160497924001891 0)
(0.07359273633290241 -0.6236590727647416 0)
(0.1028545698074884 -0.6351200996332337 0)
(0.1318833989721385 -0.6505880729442092 0)
(0.1605562168820125 -0.6702262308408676 0)
(0.188722184162043 -0.6942274522715036 0)
(0.216019517785321 -0.7228287842236181 0)
(0.2429590630816177 -0.7562737734018784 0)
(0.2650213883452497 -0.7949511124463713 0)
(0.2981398110274932 -0.8386952047456099 0)
(0.2955672586408167 -0.8889880979236167 0)
(0.2920282539207385 -0.9654065169649811 0)
(0.3341871763953144 -0.9930156354047784 0)
(0.271414895134738 0.1690451860702785 0)
(0.04585559259050962 0.6325135014339134 0)
(0.01274250820220384 0.691154692027715 0)
(0.04522259245959867 0.6849534799781025 0)
(0.07038811597556877 0.6658554953916141 0)
(0.0991111001670773 0.6414210444283974 0)
(0.1274785319322422 0.6113019310236389 0)
(0.1534662345838932 0.5752332575075501 0)
(0.1751356646423746 0.5335953623426378 0)
(0.01312589506927745 -0.6392215281145996 -2.50475140017886e-37)
(0.03848531716094594 -0.6436885675312305 0)
(0.06409394640535063 -0.6511448330892932 0)
(0.08942864856082708 -0.662358534836765 0)
(0.1144093974699141 -0.6774559539314932 0)
(0.1388813064066089 -0.6965625709743242 0)
(0.1626621893753543 -0.7198167060107685 0)
(0.1853730610466892 -0.7473962760003289 0)
(0.2074698302469921 -0.7794627331036531 0)
(0.2245080569020464 -0.8164193028274748 0)
(0.2528845415991625 -0.8576109298198432 0)
(0.241119647821559 -0.9058271880681046 0)
(0.2442200014801308 -0.9778240521472809 0)
(0.2732130783558102 -0.9750461085988886 0)
(0.07560746478648747 0.4201224689800826 0)
(-0.008208004564957769 0.6772294748575163 0)
(-0.02040834869784935 0.6776090807907567 0)
(0.02211693031639772 0.6609024771241947 0)
(0.04598182727991404 0.6396496996085362 0)
(0.07176937574754125 0.6156576160506058 0)
(0.09567356507784339 0.5875066777401501 0)
(0.1169125656152807 0.554771416059856 0)
(0.1342535758111826 0.5178383785391354 0)
(0.0112135702035717 -0.6631647854977571 -1.879553014685153e-52)